
     Program PWSCF v.7.4.1 starts on  9Mar2026 at  8:53:12 
        Git branch: heads/qe-7.4.1
        Last git commit: 500de340b820e1cb8c05f2d8bb8fced102f377c1-dirty
        Last git commit date: Fri Feb 7 14:59:05 2025 +0000
        Last git commit subject: Merge branch 'qe-7.4.1' into 'master'

     This program is part of the open-source Quantum ESPRESSO suite
     for quantum simulation of materials; please cite
         "P. Giannozzi et al., J. Phys.:Condens. Matter 21 395502 (2009);
         "P. Giannozzi et al., J. Phys.:Condens. Matter 29 465901 (2017);
         "P. Giannozzi et al., J. Chem. Phys. 152 154105 (2020);
          URL http://www.quantum-espresso.org", 
     in publications or presentations arising from this work. More details at
     http://www.quantum-espresso.org/quote

     Parallel version (MPI), running on    24 processors

     MPI processes distributed on     1 nodes
     723326 MiB available memory on the printing compute node when the environment starts
 
     Reading input from inputs_AFM/MnNiWO4_AFM.in

     Current dimensions of program PWSCF are:
     Max number of different atomic species (ntypx) = 10
     Max number of k-points (npk) =  40000
     Max angular momentum in pseudopotentials (lmaxx) =  4
     Message from routine setup:
     using ibrav=0 with symmetry is DISCOURAGED, use correct ibrav instead
 
     R & G space division:  proc/nbgrp/npool/nimage =      24
     Subspace diagonalization in iterative solution of the eigenvalue problem:
     a serial algorithm will be used

 
     Parallelization info
     --------------------
     sticks:   dense  smooth     PW     G-vecs:    dense   smooth      PW
     Min         148     148     40                 6449     6449     914
     Max         149     149     42                 6453     6453     916
     Sum        3571    3571    973               154841   154841   21969
 
     Using Slab Decomposition
 


     bravais-lattice index     =            0
     lattice parameter (alat)  =       8.7471  a.u.
     unit-cell volume          =     871.4171 (a.u.)^3
     number of atoms/cell      =           12
     number of atomic types    =            4
     number of electrons       =       109.00
     number of Kohn-Sham states=           66
     kinetic-energy cutoff     =     120.0000  Ry
     charge density cutoff     =     480.0000  Ry
     scf convergence threshold =      1.0E-09
     mixing beta               =       0.7000
     number of iterations used =            8  local-TF  mixing
     Exchange-correlation= PBESOL
                           (   1   4  10   8   0   0   0)
     Hubbard projectors: ortho-atomic
     Hubbard parameters of DFT+U (Dudarev formulation) in eV:
     U(Mn-3d) =  4.6500
     U(Ni-3d) =  8.5500

     Internal variables: lda_plus_u = T, lda_plus_u_kind = 0

     celldm(1)=   8.747073  celldm(2)=   0.000000  celldm(3)=   0.000000
     celldm(4)=   0.000000  celldm(5)=   0.000000  celldm(6)=   0.000000

     crystal axes: (cart. coord. in units of alat)
               a(1) = (   0.999998   0.000000   0.001825 )  
               a(2) = (   0.000000   1.219799   0.000000 )  
               a(3) = (  -0.008436   0.000000   1.067441 )  

     reciprocal axes: (cart. coord. in units 2 pi/alat)
               b(1) = (  0.999987  0.000000  0.007903 )  
               b(2) = (  0.000000  0.819807  0.000000 )  
               b(3) = ( -0.001710  0.000000  0.936807 )  


     PseudoPot. # 1 for Mn read from file:
     pseudo_dojo_pbesol/Mn.upf
     MD5 check sum: ef44e22c4884c1dd3870421f9f7ffd72
     Pseudo is Norm-conserving + core correction, Zval = 15.0
     Generated using ONCVPSP code by D. R. Hamann
     Using radial grid of 1448 points,  6 beta functions with: 
                l(1) =   0
                l(2) =   0
                l(3) =   1
                l(4) =   1
                l(5) =   2
                l(6) =   2

     PseudoPot. # 2 for Ni read from file:
     pseudo_dojo_pbesol/Ni.upf
     MD5 check sum: 3ec56ad6bf78c9cc1bbec815420e1c7d
     Pseudo is Norm-conserving + core correction, Zval = 18.0
     Generated using ONCVPSP code by D. R. Hamann
     Using radial grid of 1356 points,  6 beta functions with: 
                l(1) =   0
                l(2) =   0
                l(3) =   1
                l(4) =   1
                l(5) =   2
                l(6) =   2

     PseudoPot. # 3 for W  read from file:
     pseudo_dojo_pbesol/W.upf
     MD5 check sum: b5ac44390825a9169ccdba7091ec60d0
     Pseudo is Norm-conserving + core correction, Zval = 14.0
     Generated using ONCVPSP code by D. R. Hamann
     Using radial grid of 1396 points,  8 beta functions with: 
                l(1) =   0
                l(2) =   0
                l(3) =   1
                l(4) =   1
                l(5) =   2
                l(6) =   2
                l(7) =   3
                l(8) =   3

     PseudoPot. # 4 for O  read from file:
     pseudo_dojo_pbesol/O.upf
     MD5 check sum: f226cbcd508cec715ff87a8f75a1dfba
     Pseudo is Norm-conserving + core correction, Zval =  6.0
     Generated using ONCVPSP code by D. R. Hamann
     Using radial grid of  936 points,  5 beta functions with: 
                l(1) =   0
                l(2) =   0
                l(3) =   1
                l(4) =   1
                l(5) =   2

     atomic species   valence    mass     pseudopotential
     Mn               15.00    54.93805     Mn( 1.00)
     Ni               18.00    58.69340     Ni( 1.00)
     W                14.00   183.84000     W ( 1.00)
     O                 6.00    15.99940     O ( 1.00)

     Starting magnetic structure 
     atomic species   magnetization
     Mn              0.200
     Ni             -0.200
     W               0.000
     O               0.000

      2 Sym. Ops. (no inversion) found ( 1 have fractional translation)


                                    s                        frac. trans.

      isym =  1     identity                                     

 cryst.   s( 1) = (     1          0          0      )
                  (     0          1          0      )
                  (     0          0          1      )

 cart.    s( 1) = (  1.0000000  0.0000000  0.0000000 )
                  (  0.0000000  1.0000000  0.0000000 )
                  ( -0.0000000  0.0000000  1.0000000 )


      isym =  2     180 deg rotation - cart. axis [0,1,0]        

 cryst.   s( 2) = (    -1          0          0      )    f =(  0.0000000 )
                  (     0          1          0      )       (  0.0000000 )
                  (     0          0         -1      )       (  0.5000000 )

 cart.    s( 2) = ( -1.0000000  0.0000000 -0.0000000 )    f =( -0.0042179 )
                  (  0.0000000  1.0000000  0.0000000 )       (  0.0000000 )
                  (  0.0000000  0.0000000 -1.0000000 )       (  0.5337204 )


   Cartesian axes

     site n.     atom                  positions (alat units)
         1        Mn     tau(   1) = (   0.4936722   0.8201480   0.8014933  )
         2        Ni     tau(   2) = (   0.4978902   0.4098870   0.2677729  )
         3        W      tau(   3) = (  -0.0063269   0.2190571   0.8005806  )
         4        W      tau(   4) = (  -0.0021090   1.0038407   0.2668602  )
         5        O      tau(   5) = (   0.2482506   0.4561150   0.9679443  )
         6        O      tau(   6) = (   0.7390939   0.4561150   0.6350423  )
         7        O      tau(   7) = (   0.7444095   0.7537077   0.1162685  )
         8        O      tau(   8) = (   0.2513709   0.7537077   0.4192773  )
         9        O      tau(   9) = (   0.2047963   1.0946215   0.9996979  )
        10        O      tau(  10) = (   0.7825482   1.0946215   0.6032887  )
        11        O      tau(  11) = (   0.7760180   0.1284877   0.0692262  )
        12        O      tau(  12) = (   0.2197624   0.1284877   0.4663196  )

   Crystallographic axes

     site n.     atom                  positions (cryst. coord.)
         1        Mn     tau(   1) = (  0.5000000  0.6723630  0.7500000  )
         2        Ni     tau(   2) = (  0.5000000  0.3360282  0.2500000  )
         3        W      tau(   3) = (  0.0000000  0.1795845  0.7500000  )
         4        W      tau(   4) = (  0.0000000  0.8229555  0.2500000  )
         5        O      tau(   5) = (  0.2558969  0.3739262  0.9063521  )
         6        O      tau(   6) = (  0.7441031  0.3739262  0.5936479  )
         7        O      tau(   7) = (  0.7453188  0.6178948  0.1076481  )
         8        O      tau(   8) = (  0.2546812  0.6178948  0.3923519  )
         9        O      tau(   9) = (  0.2126941  0.8973782  0.9361734  )
        10        O      tau(  10) = (  0.7873059  0.8973782  0.5638266  )
        11        O      tau(  11) = (  0.7765552  0.1053351  0.0635245  )
        12        O      tau(  12) = (  0.2234448  0.1053351  0.4364755  )

     number of k points=    54  Marzari-Vanderbilt smearing, width (Ry)=  0.0200
                       cart. coord. in units 2pi/alat
        k(    1) = (   0.0831898   0.0683172   0.0787258), wk =   0.0185185
        k(    2) = (   0.0829047   0.0683172   0.2348602), wk =   0.0185185
        k(    3) = (   0.0826197   0.0683172   0.3909947), wk =   0.0185185
        k(    4) = (   0.0840448   0.0683172  -0.3896775), wk =   0.0185185
        k(    5) = (   0.0837598   0.0683172  -0.2335431), wk =   0.0185185
        k(    6) = (   0.0834748   0.0683172  -0.0774087), wk =   0.0185185
        k(    7) = (   0.0831898   0.2049517   0.0787258), wk =   0.0185185
        k(    8) = (   0.0829047   0.2049517   0.2348602), wk =   0.0185185
        k(    9) = (   0.0826197   0.2049517   0.3909947), wk =   0.0185185
        k(   10) = (   0.0840448   0.2049517  -0.3896775), wk =   0.0185185
        k(   11) = (   0.0837598   0.2049517  -0.2335431), wk =   0.0185185
        k(   12) = (   0.0834748   0.2049517  -0.0774087), wk =   0.0185185
        k(   13) = (   0.0831898   0.3415862   0.0787258), wk =   0.0185185
        k(   14) = (   0.0829047   0.3415862   0.2348602), wk =   0.0185185
        k(   15) = (   0.0826197   0.3415862   0.3909947), wk =   0.0185185
        k(   16) = (   0.0840448   0.3415862  -0.3896775), wk =   0.0185185
        k(   17) = (   0.0837598   0.3415862  -0.2335431), wk =   0.0185185
        k(   18) = (   0.0834748   0.3415862  -0.0774087), wk =   0.0185185
        k(   19) = (   0.2498543   0.0683172   0.0800429), wk =   0.0185185
        k(   20) = (   0.2495693   0.0683172   0.2361774), wk =   0.0185185
        k(   21) = (   0.2492843   0.0683172   0.3923118), wk =   0.0185185
        k(   22) = (   0.2507093   0.0683172  -0.3883604), wk =   0.0185185
        k(   23) = (   0.2504243   0.0683172  -0.2322260), wk =   0.0185185
        k(   24) = (   0.2501393   0.0683172  -0.0760915), wk =   0.0185185
        k(   25) = (   0.2498543   0.2049517   0.0800429), wk =   0.0185185
        k(   26) = (   0.2495693   0.2049517   0.2361774), wk =   0.0185185
        k(   27) = (   0.2492843   0.2049517   0.3923118), wk =   0.0185185
        k(   28) = (   0.2507093   0.2049517  -0.3883604), wk =   0.0185185
        k(   29) = (   0.2504243   0.2049517  -0.2322260), wk =   0.0185185
        k(   30) = (   0.2501393   0.2049517  -0.0760915), wk =   0.0185185
        k(   31) = (   0.2498543   0.3415862   0.0800429), wk =   0.0185185
        k(   32) = (   0.2495693   0.3415862   0.2361774), wk =   0.0185185
        k(   33) = (   0.2492843   0.3415862   0.3923118), wk =   0.0185185
        k(   34) = (   0.2507093   0.3415862  -0.3883604), wk =   0.0185185
        k(   35) = (   0.2504243   0.3415862  -0.2322260), wk =   0.0185185
        k(   36) = (   0.2501393   0.3415862  -0.0760915), wk =   0.0185185
        k(   37) = (   0.4165188   0.0683172   0.0813601), wk =   0.0185185
        k(   38) = (   0.4162338   0.0683172   0.2374945), wk =   0.0185185
        k(   39) = (   0.4159488   0.0683172   0.3936289), wk =   0.0185185
        k(   40) = (   0.4173739   0.0683172  -0.3870433), wk =   0.0185185
        k(   41) = (   0.4170889   0.0683172  -0.2309088), wk =   0.0185185
        k(   42) = (   0.4168039   0.0683172  -0.0747744), wk =   0.0185185
        k(   43) = (   0.4165188   0.2049517   0.0813601), wk =   0.0185185
        k(   44) = (   0.4162338   0.2049517   0.2374945), wk =   0.0185185
        k(   45) = (   0.4159488   0.2049517   0.3936289), wk =   0.0185185
        k(   46) = (   0.4173739   0.2049517  -0.3870433), wk =   0.0185185
        k(   47) = (   0.4170889   0.2049517  -0.2309088), wk =   0.0185185
        k(   48) = (   0.4168039   0.2049517  -0.0747744), wk =   0.0185185
        k(   49) = (   0.4165188   0.3415862   0.0813601), wk =   0.0185185
        k(   50) = (   0.4162338   0.3415862   0.2374945), wk =   0.0185185
        k(   51) = (   0.4159488   0.3415862   0.3936289), wk =   0.0185185
        k(   52) = (   0.4173739   0.3415862  -0.3870433), wk =   0.0185185
        k(   53) = (   0.4170889   0.3415862  -0.2309088), wk =   0.0185185
        k(   54) = (   0.4168039   0.3415862  -0.0747744), wk =   0.0185185

                       cryst. coord.
        k(    1) = (   0.0833333   0.0833333   0.0833333), wk =   0.0185185
        k(    2) = (   0.0833333   0.0833333   0.2500000), wk =   0.0185185
        k(    3) = (   0.0833333   0.0833333   0.4166667), wk =   0.0185185
        k(    4) = (   0.0833333   0.0833333  -0.4166667), wk =   0.0185185
        k(    5) = (   0.0833333   0.0833333  -0.2500000), wk =   0.0185185
        k(    6) = (   0.0833333   0.0833333  -0.0833333), wk =   0.0185185
        k(    7) = (   0.0833333   0.2500000   0.0833333), wk =   0.0185185
        k(    8) = (   0.0833333   0.2500000   0.2500000), wk =   0.0185185
        k(    9) = (   0.0833333   0.2500000   0.4166667), wk =   0.0185185
        k(   10) = (   0.0833333   0.2500000  -0.4166667), wk =   0.0185185
        k(   11) = (   0.0833333   0.2500000  -0.2500000), wk =   0.0185185
        k(   12) = (   0.0833333   0.2500000  -0.0833333), wk =   0.0185185
        k(   13) = (   0.0833333   0.4166667   0.0833333), wk =   0.0185185
        k(   14) = (   0.0833333   0.4166667   0.2500000), wk =   0.0185185
        k(   15) = (   0.0833333   0.4166667   0.4166667), wk =   0.0185185
        k(   16) = (   0.0833333   0.4166667  -0.4166667), wk =   0.0185185
        k(   17) = (   0.0833333   0.4166667  -0.2500000), wk =   0.0185185
        k(   18) = (   0.0833333   0.4166667  -0.0833333), wk =   0.0185185
        k(   19) = (   0.2500000   0.0833333   0.0833333), wk =   0.0185185
        k(   20) = (   0.2500000   0.0833333   0.2500000), wk =   0.0185185
        k(   21) = (   0.2500000   0.0833333   0.4166667), wk =   0.0185185
        k(   22) = (   0.2500000   0.0833333  -0.4166667), wk =   0.0185185
        k(   23) = (   0.2500000   0.0833333  -0.2500000), wk =   0.0185185
        k(   24) = (   0.2500000   0.0833333  -0.0833333), wk =   0.0185185
        k(   25) = (   0.2500000   0.2500000   0.0833333), wk =   0.0185185
        k(   26) = (   0.2500000   0.2500000   0.2500000), wk =   0.0185185
        k(   27) = (   0.2500000   0.2500000   0.4166667), wk =   0.0185185
        k(   28) = (   0.2500000   0.2500000  -0.4166667), wk =   0.0185185
        k(   29) = (   0.2500000   0.2500000  -0.2500000), wk =   0.0185185
        k(   30) = (   0.2500000   0.2500000  -0.0833333), wk =   0.0185185
        k(   31) = (   0.2500000   0.4166667   0.0833333), wk =   0.0185185
        k(   32) = (   0.2500000   0.4166667   0.2500000), wk =   0.0185185
        k(   33) = (   0.2500000   0.4166667   0.4166667), wk =   0.0185185
        k(   34) = (   0.2500000   0.4166667  -0.4166667), wk =   0.0185185
        k(   35) = (   0.2500000   0.4166667  -0.2500000), wk =   0.0185185
        k(   36) = (   0.2500000   0.4166667  -0.0833333), wk =   0.0185185
        k(   37) = (   0.4166667   0.0833333   0.0833333), wk =   0.0185185
        k(   38) = (   0.4166667   0.0833333   0.2500000), wk =   0.0185185
        k(   39) = (   0.4166667   0.0833333   0.4166667), wk =   0.0185185
        k(   40) = (   0.4166667   0.0833333  -0.4166667), wk =   0.0185185
        k(   41) = (   0.4166667   0.0833333  -0.2500000), wk =   0.0185185
        k(   42) = (   0.4166667   0.0833333  -0.0833333), wk =   0.0185185
        k(   43) = (   0.4166667   0.2500000   0.0833333), wk =   0.0185185
        k(   44) = (   0.4166667   0.2500000   0.2500000), wk =   0.0185185
        k(   45) = (   0.4166667   0.2500000   0.4166667), wk =   0.0185185
        k(   46) = (   0.4166667   0.2500000  -0.4166667), wk =   0.0185185
        k(   47) = (   0.4166667   0.2500000  -0.2500000), wk =   0.0185185
        k(   48) = (   0.4166667   0.2500000  -0.0833333), wk =   0.0185185
        k(   49) = (   0.4166667   0.4166667   0.0833333), wk =   0.0185185
        k(   50) = (   0.4166667   0.4166667   0.2500000), wk =   0.0185185
        k(   51) = (   0.4166667   0.4166667   0.4166667), wk =   0.0185185
        k(   52) = (   0.4166667   0.4166667  -0.4166667), wk =   0.0185185
        k(   53) = (   0.4166667   0.4166667  -0.2500000), wk =   0.0185185
        k(   54) = (   0.4166667   0.4166667  -0.0833333), wk =   0.0185185

     Dense  grid:   154841 G-vectors     FFT dimensions: (  64,  75,  72)

     Dynamical RAM for                 wfc:       0.81 MB

     Dynamical RAM for     wfc (w. buffer):      88.48 MB

     Dynamical RAM for             U proj.:       0.12 MB

     Dynamical RAM for  U proj. (w. buff.):      13.41 MB

     Dynamical RAM for           str. fact:       0.39 MB

     Dynamical RAM for           local pot:       0.00 MB

     Dynamical RAM for          nlocal pot:       2.51 MB

     Dynamical RAM for                qrad:      16.87 MB

     Dynamical RAM for          rho,v,vnew:       1.25 MB

     Dynamical RAM for               rhoin:       0.42 MB

     Dynamical RAM for            rho*nmix:       3.15 MB

     Dynamical RAM for           G-vectors:       0.42 MB

     Dynamical RAM for          h,s,v(r/c):       0.80 MB

     Dynamical RAM for          <psi|beta>:       0.21 MB

     Dynamical RAM for                 psi:       1.62 MB

     Dynamical RAM for                hpsi:       1.62 MB

     Dynamical RAM for      wfcinit/wfcrot:       1.72 MB

     Estimated static dynamical RAM per process >     124.89 MB

     Estimated max dynamical RAM per process >     132.29 MB

     Estimated total dynamical RAM >       3.10 GB
     Generating pointlists ...
     new r_m :   0.1836 (alat units)  1.6058 (a.u.) for type    1
     new r_m :   0.1822 (alat units)  1.5942 (a.u.) for type    2
     new r_m :   0.1592 (alat units)  1.3928 (a.u.) for type    3
     new r_m :   0.1592 (alat units)  1.3928 (a.u.) for type    4

     Initial potential from superposition of free atoms

     starting charge     108.9983, renormalised to     109.0000

     HUBBARD ENERGY =    0.3770  (Ry)

     STARTING HUBBARD OCCUPATIONS:

     =================== HUBBARD OCCUPATIONS ===================
     ------------------------ ATOM    1 ------------------------
     Tr[ns(  1)] (up, down, total) =   5.00000  0.00000  5.00000
     Atomic magnetic moment for atom   1 =   5.00000
     SPIN  1
     eigenvalues:
       1.000  1.000  1.000  1.000  1.000
     eigenvectors (columns):
       1.000  0.000  0.000  0.000  0.000
       0.000  1.000  0.000  0.000  0.000
       0.000  0.000  1.000  0.000  0.000
       0.000  0.000  0.000  1.000  0.000
       0.000  0.000  0.000  0.000  1.000
     occupation matrix ns (before diag.):
       1.000  0.000  0.000  0.000  0.000
       0.000  1.000  0.000  0.000  0.000
       0.000  0.000  1.000  0.000  0.000
       0.000  0.000  0.000  1.000  0.000
       0.000  0.000  0.000  0.000  1.000
     SPIN  2
     eigenvalues:
       0.000  0.000  0.000  0.000  0.000
     eigenvectors (columns):
       1.000  0.000  0.000  0.000  0.000
       0.000  1.000  0.000  0.000  0.000
       0.000  0.000  1.000  0.000  0.000
       0.000  0.000  0.000  1.000  0.000
       0.000  0.000  0.000  0.000  1.000
     occupation matrix ns (before diag.):
       0.000  0.000  0.000  0.000  0.000
       0.000  0.000  0.000  0.000  0.000
       0.000  0.000  0.000  0.000  0.000
       0.000  0.000  0.000  0.000  0.000
       0.000  0.000  0.000  0.000  0.000
     ------------------------ ATOM    2 ------------------------
     Tr[ns(  2)] (up, down, total) =   3.00000  5.00000  8.00000
     Atomic magnetic moment for atom   2 =  -2.00000
     SPIN  1
     eigenvalues:
       0.600  0.600  0.600  0.600  0.600
     eigenvectors (columns):
       1.000  0.000  0.000  0.000  0.000
       0.000  1.000  0.000  0.000  0.000
       0.000  0.000  1.000  0.000  0.000
       0.000  0.000  0.000  1.000  0.000
       0.000  0.000  0.000  0.000  1.000
     occupation matrix ns (before diag.):
       0.600  0.000  0.000  0.000  0.000
       0.000  0.600  0.000  0.000  0.000
       0.000  0.000  0.600  0.000  0.000
       0.000  0.000  0.000  0.600  0.000
       0.000  0.000  0.000  0.000  0.600
     SPIN  2
     eigenvalues:
       1.000  1.000  1.000  1.000  1.000
     eigenvectors (columns):
       1.000  0.000  0.000  0.000  0.000
       0.000  1.000  0.000  0.000  0.000
       0.000  0.000  1.000  0.000  0.000
       0.000  0.000  0.000  1.000  0.000
       0.000  0.000  0.000  0.000  1.000
     occupation matrix ns (before diag.):
       1.000  0.000  0.000  0.000  0.000
       0.000  1.000  0.000  0.000  0.000
       0.000  0.000  1.000  0.000  0.000
       0.000  0.000  0.000  1.000  0.000
       0.000  0.000  0.000  0.000  1.000

     Number of occupied Hubbard levels =   13.0000

     Atomic wfc used for Hubbard projectors are orthogonalized

     Starting wfcs are   72 randomized atomic wfcs

     total cpu time spent up to now is        4.3 secs

     per-process dynamical memory:   175.8 Mb

     Self-consistent Calculation

     iteration #  1     ecut=   120.00 Ry     beta= 0.70
     Davidson diagonalization with overlap

---- Real-time Memory Report at c_bands before calling an iterative solver
           211 MiB given to the printing process from OS
           171 MiB allocation reported by mallinfo(arena+hblkhd)
        710095 MiB available memory on the node where the printing process lives
------------------
     ethr =  1.00E-02,  avg # of iterations =  2.3
     Minimization algorithm failed to find Fermi energy: reverting to bisection
     Possible cause: smearing is larger than the electronic band-gap.

     =================== HUBBARD OCCUPATIONS ===================
     ------------------------ ATOM    1 ------------------------
     Tr[ns(  1)] (up, down, total) =   4.95868  0.21461  5.17329
     Atomic magnetic moment for atom   1 =   4.74406
     SPIN  1
     eigenvalues:
       0.982  0.988  0.996  0.996  0.997
     eigenvectors (columns):
      -0.000  0.590 -0.000 -0.768 -0.249
      -0.000 -0.764 -0.000 -0.631  0.136
       0.527 -0.000 -0.850  0.000  0.000
       0.000  0.262  0.000 -0.110  0.959
       0.850  0.000  0.527 -0.000 -0.000
     occupation matrix ns (before diag.):
       0.993  0.004 -0.000 -0.001  0.000
       0.004  0.991 -0.000  0.002  0.000
      -0.000 -0.000  0.992 -0.000 -0.006
      -0.001  0.002 -0.000  0.996 -0.000
       0.000  0.000 -0.006 -0.000  0.986
     SPIN  2
     eigenvalues:
       0.020  0.021  0.023  0.075  0.075
     eigenvectors (columns):
      -0.837  0.000  0.099  0.000  0.538
      -0.489  0.000  0.307 -0.000 -0.817
      -0.000 -0.827  0.000  0.563 -0.000
       0.246 -0.000  0.947 -0.000  0.209
       0.000  0.563  0.000  0.827 -0.000
     occupation matrix ns (before diag.):
       0.036 -0.024  0.000  0.006  0.000
      -0.024  0.057 -0.000 -0.008  0.000
       0.000 -0.000  0.038 -0.000  0.025
       0.006 -0.008 -0.000  0.026 -0.000
       0.000  0.000  0.025 -0.000  0.058
     ------------------------ ATOM    2 ------------------------
     Tr[ns(  2)] (up, down, total) =   3.32732  4.98899  8.31631
     Atomic magnetic moment for atom   2 =  -1.66167
     SPIN  1
     eigenvalues:
       0.178  0.181  0.942  1.002  1.024
     eigenvectors (columns):
      -0.529 -0.000  0.216 -0.000 -0.821
       0.811  0.000 -0.155 -0.000 -0.564
      -0.000  0.540  0.000 -0.842  0.000
      -0.249 -0.000 -0.964 -0.000 -0.093
      -0.000  0.842 -0.000  0.540 -0.000
     occupation matrix ns (before diag.):
       0.783  0.366 -0.000 -0.095  0.000
       0.366  0.465 -0.000  0.159  0.000
      -0.000 -0.000  0.763  0.000 -0.373
      -0.095  0.159  0.000  0.896 -0.000
       0.000  0.000 -0.373 -0.000  0.420
     SPIN  2
     eigenvalues:
       0.996  0.996  0.999  0.999  0.999
     eigenvectors (columns):
       0.576 -0.000 -0.000 -0.793 -0.200
      -0.769  0.000 -0.000 -0.608  0.195
       0.000  0.525 -0.851  0.000  0.000
       0.276 -0.000 -0.000 -0.042  0.960
       0.000  0.851  0.525 -0.000 -0.000
     occupation matrix ns (before diag.):
       0.998  0.001 -0.000 -0.000  0.000
       0.001  0.997 -0.000  0.001  0.000
      -0.000 -0.000  0.998 -0.000 -0.001
      -0.000  0.001 -0.000  0.999 -0.000
       0.000  0.000 -0.001 -0.000  0.997

     Number of occupied Hubbard levels =   13.4896

     HUBBARD ENERGY =    0.1460  (Ry)

     total cpu time spent up to now is       15.1 secs

     total energy              =   -1119.31376050 Ry
     estimated scf accuracy    <       4.30919202 Ry

     total magnetization       =     3.00 Bohr mag/cell
     absolute magnetization    =     6.82 Bohr mag/cell

     iteration #  2     ecut=   120.00 Ry     beta= 0.70
     Davidson diagonalization with overlap

---- Real-time Memory Report at c_bands before calling an iterative solver
           219 MiB given to the printing process from OS
           176 MiB allocation reported by mallinfo(arena+hblkhd)
        709182 MiB available memory on the node where the printing process lives
------------------
     ethr =  3.95E-03,  avg # of iterations =  2.0

     =================== HUBBARD OCCUPATIONS ===================
     ------------------------ ATOM    1 ------------------------
     Tr[ns(  1)] (up, down, total) =   4.93123  0.28215  5.21338
     Atomic magnetic moment for atom   1 =   4.64908
     SPIN  1
     eigenvalues:
       0.973  0.973  0.995  0.995  0.995
     eigenvectors (columns):
       0.000  0.590  0.807  0.000 -0.029
      -0.000 -0.772  0.554  0.000 -0.311
       0.526 -0.000  0.000 -0.851 -0.000
       0.000  0.235 -0.206  0.000 -0.950
       0.851 -0.000 -0.000  0.526  0.000
     occupation matrix ns (before diag.):
       0.987  0.010 -0.000 -0.003  0.000
       0.010  0.982 -0.000  0.004  0.000
      -0.000 -0.000  0.989 -0.000 -0.010
      -0.003  0.004 -0.000  0.994 -0.000
       0.000  0.000 -0.010 -0.000  0.979
     SPIN  2
     eigenvalues:
       0.027  0.028  0.033  0.097  0.097
     eigenvectors (columns):
      -0.000  0.845  0.034  0.000  0.534
      -0.000  0.527 -0.227 -0.000 -0.819
      -0.830 -0.000 -0.000  0.558 -0.000
       0.000 -0.093 -0.973  0.000  0.209
       0.558  0.000 -0.000  0.830 -0.000
     occupation matrix ns (before diag.):
       0.047 -0.030  0.000  0.008  0.000
      -0.030  0.075 -0.000 -0.011  0.000
       0.000 -0.000  0.049 -0.000  0.032
       0.008 -0.011 -0.000  0.036 -0.000
       0.000  0.000  0.032 -0.000  0.075
     ------------------------ ATOM    2 ------------------------
     Tr[ns(  2)] (up, down, total) =   3.21436  4.97823  8.19258
     Atomic magnetic moment for atom   2 =  -1.76387
     SPIN  1
     eigenvalues:
       0.115  0.115  0.995  0.995  0.995
     eigenvectors (columns):
       0.000 -0.532  0.843  0.000 -0.080
      -0.000  0.809  0.478  0.000 -0.341
       0.544  0.000  0.000 -0.839 -0.000
       0.000 -0.250 -0.246  0.000 -0.937
       0.839  0.000 -0.000  0.544  0.000
     occupation matrix ns (before diag.):
       0.746  0.378 -0.000 -0.117  0.000
       0.378  0.418 -0.000  0.178  0.000
      -0.000 -0.000  0.735  0.000 -0.402
      -0.117  0.178  0.000  0.940 -0.000
       0.000  0.000 -0.402 -0.000  0.375
     SPIN  2
     eigenvalues:
       0.992  0.993  0.997  0.998  0.998
     eigenvectors (columns):
      -0.573 -0.000 -0.819  0.000  0.027
       0.771  0.000 -0.549  0.000 -0.323
      -0.000  0.477 -0.000 -0.879 -0.000
      -0.280  0.000  0.165  0.000 -0.946
      -0.000  0.879  0.000  0.477  0.000
     occupation matrix ns (before diag.):
       0.996  0.002 -0.000 -0.001  0.000
       0.002  0.994 -0.000  0.001  0.000
      -0.000 -0.000  0.997 -0.000 -0.002
      -0.001  0.001 -0.000  0.998 -0.000
       0.000  0.000 -0.002 -0.000  0.994

     Number of occupied Hubbard levels =   13.4060

     HUBBARD ENERGY =    0.1366  (Ry)

     total cpu time spent up to now is       25.3 secs

     total energy              =   -1120.09771507 Ry
     estimated scf accuracy    <       0.11827620 Ry

     total magnetization       =     3.00 Bohr mag/cell
     absolute magnetization    =     6.79 Bohr mag/cell

     iteration #  3     ecut=   120.00 Ry     beta= 0.70
     Davidson diagonalization with overlap

---- Real-time Memory Report at c_bands before calling an iterative solver
           220 MiB given to the printing process from OS
           177 MiB allocation reported by mallinfo(arena+hblkhd)
        709118 MiB available memory on the node where the printing process lives
------------------
     ethr =  1.09E-04,  avg # of iterations =  8.0

     =================== HUBBARD OCCUPATIONS ===================
     ------------------------ ATOM    1 ------------------------
     Tr[ns(  1)] (up, down, total) =   4.92770  0.26556  5.19325
     Atomic magnetic moment for atom   1 =   4.66214
     SPIN  1
     eigenvalues:
       0.971  0.972  0.995  0.995  0.995
     eigenvectors (columns):
       0.000  0.591  0.805  0.000  0.055
      -0.000 -0.773  0.584  0.000 -0.248
       0.531 -0.000  0.000 -0.847 -0.000
       0.000  0.232 -0.104  0.000 -0.967
       0.847 -0.000 -0.000  0.531  0.000
     occupation matrix ns (before diag.):
       0.987  0.011 -0.000 -0.003  0.000
       0.011  0.981 -0.000  0.004  0.000
      -0.000 -0.000  0.988 -0.000 -0.011
      -0.003  0.004 -0.000  0.994 -0.000
       0.000  0.000 -0.011 -0.000  0.978
     SPIN  2
     eigenvalues:
       0.025  0.025  0.031  0.092  0.092
     eigenvectors (columns):
      -0.000  0.845 -0.007  0.000 -0.535
      -0.000  0.520  0.242 -0.000  0.819
      -0.828 -0.000  0.000  0.560  0.000
       0.000 -0.123  0.970  0.000 -0.208
       0.560  0.000 -0.000  0.828  0.000
     occupation matrix ns (before diag.):
       0.045 -0.029  0.000  0.007  0.000
      -0.029  0.070 -0.000 -0.010  0.000
       0.000 -0.000  0.046 -0.000  0.031
       0.007 -0.010 -0.000  0.033 -0.000
       0.000  0.000  0.031 -0.000  0.071
     ------------------------ ATOM    2 ------------------------
     Tr[ns(  2)] (up, down, total) =   3.19535  4.97759  8.17294
     Atomic magnetic moment for atom   2 =  -1.78224
     SPIN  1
     eigenvalues:
       0.104  0.105  0.995  0.996  0.996
     eigenvectors (columns):
       0.000 -0.533  0.841  0.000  0.093
      -0.000  0.808  0.538  0.000 -0.238
       0.545  0.000  0.000 -0.838 -0.000
       0.000 -0.251 -0.052  0.000 -0.967
       0.838  0.000 -0.000  0.545  0.000
     occupation matrix ns (before diag.):
       0.743  0.383 -0.000 -0.119  0.000
       0.383  0.413 -0.000  0.180  0.000
      -0.000 -0.000  0.731  0.000 -0.408
      -0.119  0.180  0.000  0.940 -0.000
       0.000  0.000 -0.408 -0.000  0.369
     SPIN  2
     eigenvalues:
       0.992  0.993  0.997  0.998  0.998
     eigenvectors (columns):
      -0.579 -0.000 -0.813  0.000  0.054
       0.767  0.000 -0.566  0.000 -0.304
      -0.000  0.487 -0.000 -0.873 -0.000
      -0.277  0.000  0.135 -0.000 -0.951
      -0.000  0.873  0.000  0.487  0.000
     occupation matrix ns (before diag.):
       0.996  0.002 -0.000 -0.001  0.000
       0.002  0.994 -0.000  0.001  0.000
      -0.000 -0.000  0.996 -0.000 -0.002
      -0.001  0.001 -0.000  0.997 -0.000
       0.000  0.000 -0.002 -0.000  0.994

     Number of occupied Hubbard levels =   13.3662

     HUBBARD ENERGY =    0.1241  (Ry)

     total cpu time spent up to now is       40.4 secs

     total energy              =   -1120.12067890 Ry
     estimated scf accuracy    <       0.02752699 Ry

     total magnetization       =     3.00 Bohr mag/cell
     absolute magnetization    =     6.82 Bohr mag/cell

     iteration #  4     ecut=   120.00 Ry     beta= 0.70
     Davidson diagonalization with overlap

---- Real-time Memory Report at c_bands before calling an iterative solver
           221 MiB given to the printing process from OS
           177 MiB allocation reported by mallinfo(arena+hblkhd)
        709069 MiB available memory on the node where the printing process lives
------------------
     ethr =  2.53E-05,  avg # of iterations =  3.4

     =================== HUBBARD OCCUPATIONS ===================
     ------------------------ ATOM    1 ------------------------
     Tr[ns(  1)] (up, down, total) =   4.93060  0.25482  5.18542
     Atomic magnetic moment for atom   1 =   4.67578
     SPIN  1
     eigenvalues:
       0.972  0.973  0.995  0.995  0.995
     eigenvectors (columns):
       0.000  0.592  0.794  0.000  0.139
      -0.000 -0.772  0.608  0.000 -0.184
       0.534 -0.000  0.000 -0.846 -0.000
       0.000  0.230 -0.001  0.000 -0.973
       0.846 -0.000 -0.000  0.534  0.000
     occupation matrix ns (before diag.):
       0.987  0.010 -0.000 -0.003  0.000
       0.010  0.982 -0.000  0.004  0.000
      -0.000 -0.000  0.989 -0.000 -0.010
      -0.003  0.004 -0.000  0.994 -0.000
       0.000  0.000 -0.010 -0.000  0.979
     SPIN  2
     eigenvalues:
       0.024  0.024  0.029  0.089  0.089
     eigenvectors (columns):
      -0.845  0.000  0.008  0.000  0.535
      -0.516  0.000  0.251 -0.000 -0.819
      -0.000 -0.828  0.000  0.561 -0.000
       0.141 -0.000  0.968  0.000  0.208
       0.000  0.561  0.000  0.828 -0.000
     occupation matrix ns (before diag.):
       0.043 -0.028  0.000  0.007  0.000
      -0.028  0.068 -0.000 -0.010  0.000
       0.000 -0.000  0.045 -0.000  0.030
       0.007 -0.010 -0.000  0.032 -0.000
       0.000  0.000  0.030 -0.000  0.068
     ------------------------ ATOM    2 ------------------------
     Tr[ns(  2)] (up, down, total) =   3.18586  4.97922  8.16508
     Atomic magnetic moment for atom   2 =  -1.79336
     SPIN  1
     eigenvalues:
       0.098  0.100  0.996  0.996  0.997
     eigenvectors (columns):
       0.000 -0.534  0.832  0.000  0.150
      -0.000  0.807  0.554  0.000 -0.202
       0.547  0.000  0.000 -0.837 -0.000
       0.000 -0.252  0.013  0.000 -0.968
       0.837  0.000 -0.000  0.547  0.000
     occupation matrix ns (before diag.):
       0.741  0.386 -0.000 -0.121  0.000
       0.386  0.412 -0.000  0.182  0.000
      -0.000 -0.000  0.728  0.000 -0.411
      -0.121  0.182  0.000  0.940 -0.000
       0.000  0.000 -0.411 -0.000  0.366
     SPIN  2
     eigenvalues:
       0.993  0.993  0.998  0.998  0.998
     eigenvectors (columns):
      -0.580 -0.000 -0.812  0.000  0.068
       0.766  0.000 -0.572  0.000 -0.294
      -0.000  0.491 -0.000 -0.871 -0.000
      -0.277  0.000  0.119 -0.000 -0.953
      -0.000  0.871  0.000  0.491  0.000
     occupation matrix ns (before diag.):
       0.996  0.002 -0.000 -0.001  0.000
       0.002  0.995 -0.000  0.001  0.000
      -0.000 -0.000  0.997 -0.000 -0.002
      -0.001  0.001 -0.000  0.998 -0.000
       0.000  0.000 -0.002 -0.000  0.994

     Number of occupied Hubbard levels =   13.3505

     HUBBARD ENERGY =    0.1177  (Ry)

     total cpu time spent up to now is       51.4 secs

     total energy              =   -1120.12327584 Ry
     estimated scf accuracy    <       0.00584876 Ry

     total magnetization       =     3.00 Bohr mag/cell
     absolute magnetization    =     6.84 Bohr mag/cell

     iteration #  5     ecut=   120.00 Ry     beta= 0.70
     Davidson diagonalization with overlap

---- Real-time Memory Report at c_bands before calling an iterative solver
           222 MiB given to the printing process from OS
           177 MiB allocation reported by mallinfo(arena+hblkhd)
        709028 MiB available memory on the node where the printing process lives
------------------
     ethr =  5.37E-06,  avg # of iterations =  3.7

     =================== HUBBARD OCCUPATIONS ===================
     ------------------------ ATOM    1 ------------------------
     Tr[ns(  1)] (up, down, total) =   4.92898  0.25600  5.18498
     Atomic magnetic moment for atom   1 =   4.67298
     SPIN  1
     eigenvalues:
       0.972  0.972  0.995  0.995  0.995
     eigenvectors (columns):
       0.000  0.592  0.800  0.000  0.103
      -0.000 -0.773  0.599  0.000 -0.211
       0.533 -0.000  0.000 -0.846 -0.000
       0.000  0.230 -0.045  0.000 -0.972
       0.846 -0.000 -0.000  0.533  0.000
     occupation matrix ns (before diag.):
       0.987  0.010 -0.000 -0.003  0.000
       0.010  0.981 -0.000  0.004  0.000
      -0.000 -0.000  0.988 -0.000 -0.010
      -0.003  0.004 -0.000  0.994 -0.000
       0.000  0.000 -0.010 -0.000  0.978
     SPIN  2
     eigenvalues:
       0.024  0.024  0.029  0.089  0.089
     eigenvectors (columns):
      -0.845  0.000  0.004  0.000  0.535
      -0.517  0.000  0.248 -0.000 -0.819
      -0.000 -0.828  0.000  0.561 -0.000
       0.136 -0.000  0.969  0.000  0.208
       0.000  0.561 -0.000  0.828 -0.000
     occupation matrix ns (before diag.):
       0.043 -0.028  0.000  0.007  0.000
      -0.028  0.068 -0.000 -0.010  0.000
       0.000 -0.000  0.045 -0.000  0.030
       0.007 -0.010 -0.000  0.032 -0.000
       0.000  0.000  0.030 -0.000  0.069
     ------------------------ ATOM    2 ------------------------
     Tr[ns(  2)] (up, down, total) =   3.18982  4.97942  8.16925
     Atomic magnetic moment for atom   2 =  -1.78960
     SPIN  1
     eigenvalues:
       0.099  0.101  0.996  0.996  0.997
     eigenvectors (columns):
       0.000 -0.535  0.834  0.000  0.136
      -0.000  0.806  0.552  0.000 -0.213
       0.548  0.000  0.000 -0.837 -0.000
       0.000 -0.253 -0.004  0.000 -0.967
       0.837  0.000 -0.000  0.548  0.000
     occupation matrix ns (before diag.):
       0.740  0.386 -0.000 -0.121  0.000
       0.386  0.414 -0.000  0.183  0.000
      -0.000 -0.000  0.727  0.000 -0.411
      -0.121  0.183  0.000  0.939 -0.000
       0.000  0.000 -0.411 -0.000  0.368
     SPIN  2
     eigenvalues:
       0.993  0.993  0.998  0.998  0.998
     eigenvectors (columns):
      -0.579 -0.000 -0.814  0.000  0.048
       0.767  0.000 -0.563  0.000 -0.307
      -0.000  0.490 -0.000 -0.872 -0.000
      -0.277  0.000  0.141 -0.000 -0.951
      -0.000  0.872  0.000  0.490  0.000
     occupation matrix ns (before diag.):
       0.996  0.002 -0.000 -0.001  0.000
       0.002  0.995 -0.000  0.001  0.000
      -0.000 -0.000  0.997 -0.000 -0.002
      -0.001  0.001 -0.000  0.998 -0.000
       0.000  0.000 -0.002 -0.000  0.994

     Number of occupied Hubbard levels =   13.3542

     HUBBARD ENERGY =    0.1189  (Ry)

     total cpu time spent up to now is       62.1 secs

     total energy              =   -1120.12422153 Ry
     estimated scf accuracy    <       0.00055714 Ry

     total magnetization       =     3.00 Bohr mag/cell
     absolute magnetization    =     6.84 Bohr mag/cell

     iteration #  6     ecut=   120.00 Ry     beta= 0.70
     Davidson diagonalization with overlap

---- Real-time Memory Report at c_bands before calling an iterative solver
           222 MiB given to the printing process from OS
           178 MiB allocation reported by mallinfo(arena+hblkhd)
        708988 MiB available memory on the node where the printing process lives
------------------
     ethr =  5.11E-07,  avg # of iterations =  2.6

     =================== HUBBARD OCCUPATIONS ===================
     ------------------------ ATOM    1 ------------------------
     Tr[ns(  1)] (up, down, total) =   4.92938  0.25728  5.18665
     Atomic magnetic moment for atom   1 =   4.67210
     SPIN  1
     eigenvalues:
       0.972  0.972  0.995  0.995  0.995
     eigenvectors (columns):
       0.000  0.592  0.799  0.000  0.104
      -0.000 -0.773  0.599  0.000 -0.210
       0.533 -0.000  0.000 -0.846 -0.000
       0.000  0.230 -0.044  0.000 -0.972
       0.846 -0.000 -0.000  0.533  0.000
     occupation matrix ns (before diag.):
       0.987  0.010 -0.000 -0.003  0.000
       0.010  0.981 -0.000  0.004  0.000
      -0.000 -0.000  0.988 -0.000 -0.010
      -0.003  0.004 -0.000  0.994 -0.000
       0.000  0.000 -0.010 -0.000  0.979
     SPIN  2
     eigenvalues:
       0.025  0.025  0.030  0.089  0.089
     eigenvectors (columns):
      -0.000 -0.845  0.004  0.000  0.535
      -0.000 -0.517  0.248 -0.000 -0.819
      -0.828  0.000  0.000  0.561 -0.000
       0.000  0.136  0.969  0.000  0.208
       0.561 -0.000  0.000  0.828 -0.000
     occupation matrix ns (before diag.):
       0.043 -0.028  0.000  0.007  0.000
      -0.028  0.068 -0.000 -0.010  0.000
       0.000 -0.000  0.045 -0.000  0.030
       0.007 -0.010 -0.000  0.032 -0.000
       0.000  0.000  0.030 -0.000  0.069
     ------------------------ ATOM    2 ------------------------
     Tr[ns(  2)] (up, down, total) =   3.19395  4.97970  8.17365
     Atomic magnetic moment for atom   2 =  -1.78575
     SPIN  1
     eigenvalues:
       0.101  0.103  0.996  0.996  0.997
     eigenvectors (columns):
       0.000 -0.535  0.835  0.000  0.131
      -0.000  0.806  0.551  0.000 -0.218
       0.548  0.000  0.000 -0.836 -0.000
       0.000 -0.254 -0.011  0.000 -0.967
       0.836  0.000 -0.000  0.548  0.000
     occupation matrix ns (before diag.):
       0.740  0.385 -0.000 -0.121  0.000
       0.385  0.416 -0.000  0.183  0.000
      -0.000 -0.000  0.727  0.000 -0.410
      -0.121  0.183  0.000  0.939 -0.000
       0.000  0.000 -0.410 -0.000  0.371
     SPIN  2
     eigenvalues:
       0.993  0.993  0.998  0.998  0.998
     eigenvectors (columns):
      -0.578 -0.000 -0.815  0.000  0.047
       0.768  0.000 -0.562  0.000 -0.307
      -0.000  0.491 -0.000 -0.871 -0.000
      -0.276  0.000  0.141 -0.000 -0.951
      -0.000  0.871  0.000  0.491  0.000
     occupation matrix ns (before diag.):
       0.996  0.002 -0.000 -0.001  0.000
       0.002  0.995 -0.000  0.001  0.000
      -0.000 -0.000  0.997 -0.000 -0.002
      -0.001  0.001 -0.000  0.998 -0.000
       0.000  0.000 -0.002 -0.000  0.994

     Number of occupied Hubbard levels =   13.3603

     HUBBARD ENERGY =    0.1198  (Ry)

     total cpu time spent up to now is       72.2 secs

     total energy              =   -1120.12424074 Ry
     estimated scf accuracy    <       0.00018349 Ry

     total magnetization       =     3.00 Bohr mag/cell
     absolute magnetization    =     6.84 Bohr mag/cell

     iteration #  7     ecut=   120.00 Ry     beta= 0.70
     Davidson diagonalization with overlap

---- Real-time Memory Report at c_bands before calling an iterative solver
           223 MiB given to the printing process from OS
           178 MiB allocation reported by mallinfo(arena+hblkhd)
        708959 MiB available memory on the node where the printing process lives
------------------
     ethr =  1.68E-07,  avg # of iterations =  1.8

     =================== HUBBARD OCCUPATIONS ===================
     ------------------------ ATOM    1 ------------------------
     Tr[ns(  1)] (up, down, total) =   4.92975  0.25720  5.18695
     Atomic magnetic moment for atom   1 =   4.67255
     SPIN  1
     eigenvalues:
       0.972  0.972  0.995  0.995  0.995
     eigenvectors (columns):
       0.000  0.592  0.798  0.000  0.112
      -0.000 -0.772  0.601  0.000 -0.204
       0.534 -0.000  0.000 -0.846 -0.000
       0.000  0.230 -0.034  0.000 -0.973
       0.846 -0.000 -0.000  0.534  0.000
     occupation matrix ns (before diag.):
       0.987  0.010 -0.000 -0.003  0.000
       0.010  0.981 -0.000  0.004  0.000
      -0.000 -0.000  0.989 -0.000 -0.010
      -0.003  0.004 -0.000  0.994 -0.000
       0.000  0.000 -0.010 -0.000  0.979
     SPIN  2
     eigenvalues:
       0.024  0.025  0.029  0.089  0.089
     eigenvectors (columns):
      -0.000 -0.845  0.005  0.000  0.535
      -0.000 -0.517  0.249 -0.000 -0.819
      -0.828  0.000  0.000  0.561 -0.000
       0.000  0.137  0.969  0.000  0.208
       0.561 -0.000  0.000  0.828 -0.000
     occupation matrix ns (before diag.):
       0.043 -0.028  0.000  0.007  0.000
      -0.028  0.068 -0.000 -0.010  0.000
       0.000 -0.000  0.045 -0.000  0.030
       0.007 -0.010 -0.000  0.032 -0.000
       0.000  0.000  0.030 -0.000  0.069
     ------------------------ ATOM    2 ------------------------
     Tr[ns(  2)] (up, down, total) =   3.19562  4.97985  8.17547
     Atomic magnetic moment for atom   2 =  -1.78423
     SPIN  1
     eigenvalues:
       0.102  0.104  0.996  0.996  0.997
     eigenvectors (columns):
       0.000 -0.536  0.835  0.000  0.129
      -0.000  0.805  0.551  0.000 -0.220
       0.549  0.000  0.000 -0.836 -0.000
       0.000 -0.254 -0.014  0.000 -0.967
       0.836  0.000 -0.000  0.549  0.000
     occupation matrix ns (before diag.):
       0.740  0.385 -0.000 -0.122  0.000
       0.385  0.418 -0.000  0.183  0.000
      -0.000 -0.000  0.727  0.000 -0.410
      -0.122  0.183  0.000  0.939 -0.000
       0.000  0.000 -0.410 -0.000  0.372
     SPIN  2
     eigenvalues:
       0.993  0.993  0.998  0.998  0.998
     eigenvectors (columns):
      -0.578 -0.000 -0.815  0.000  0.046
       0.768  0.000 -0.562  0.000 -0.307
      -0.000  0.490 -0.000 -0.871 -0.000
      -0.276  0.000  0.142  0.000 -0.951
      -0.000  0.871  0.000  0.490  0.000
     occupation matrix ns (before diag.):
       0.996  0.002 -0.000 -0.001  0.000
       0.002  0.995 -0.000  0.001  0.000
      -0.000 -0.000  0.997 -0.000 -0.002
      -0.001  0.001 -0.000  0.998 -0.000
       0.000  0.000 -0.002 -0.000  0.994

     Number of occupied Hubbard levels =   13.3624

     HUBBARD ENERGY =    0.1205  (Ry)

     total cpu time spent up to now is       80.8 secs

     total energy              =   -1120.12426634 Ry
     estimated scf accuracy    <       0.00000846 Ry

     total magnetization       =     3.00 Bohr mag/cell
     absolute magnetization    =     6.84 Bohr mag/cell

     iteration #  8     ecut=   120.00 Ry     beta= 0.70
     Davidson diagonalization with overlap

---- Real-time Memory Report at c_bands before calling an iterative solver
           223 MiB given to the printing process from OS
           179 MiB allocation reported by mallinfo(arena+hblkhd)
        708920 MiB available memory on the node where the printing process lives
------------------
     ethr =  7.76E-09,  avg # of iterations =  4.6

     =================== HUBBARD OCCUPATIONS ===================
     ------------------------ ATOM    1 ------------------------
     Tr[ns(  1)] (up, down, total) =   4.92977  0.25703  5.18680
     Atomic magnetic moment for atom   1 =   4.67275
     SPIN  1
     eigenvalues:
       0.972  0.972  0.995  0.995  0.995
     eigenvectors (columns):
       0.000  0.592  0.798  0.000  0.111
      -0.000 -0.772  0.602  0.000 -0.204
       0.534 -0.000  0.000 -0.846 -0.000
       0.000  0.230 -0.035  0.000 -0.973
       0.846 -0.000 -0.000  0.534  0.000
     occupation matrix ns (before diag.):
       0.987  0.010 -0.000 -0.003  0.000
       0.010  0.982 -0.000  0.004  0.000
      -0.000 -0.000  0.989 -0.000 -0.010
      -0.003  0.004 -0.000  0.994 -0.000
       0.000  0.000 -0.010 -0.000  0.979
     SPIN  2
     eigenvalues:
       0.024  0.024  0.029  0.089  0.089
     eigenvectors (columns):
      -0.000 -0.845  0.005  0.000  0.535
      -0.000 -0.517  0.249 -0.000 -0.819
      -0.828  0.000  0.000  0.561 -0.000
       0.000  0.138  0.968  0.000  0.208
       0.561 -0.000  0.000  0.828 -0.000
     occupation matrix ns (before diag.):
       0.043 -0.028  0.000  0.007  0.000
      -0.028  0.068 -0.000 -0.010  0.000
       0.000 -0.000  0.045 -0.000  0.030
       0.007 -0.010 -0.000  0.032 -0.000
       0.000  0.000  0.030 -0.000  0.069
     ------------------------ ATOM    2 ------------------------
     Tr[ns(  2)] (up, down, total) =   3.19623  4.97987  8.17610
     Atomic magnetic moment for atom   2 =  -1.78365
     SPIN  1
     eigenvalues:
       0.103  0.104  0.996  0.996  0.997
     eigenvectors (columns):
       0.000 -0.536  0.835  0.000  0.126
      -0.000  0.805  0.550  0.000 -0.223
       0.550  0.000  0.000 -0.835 -0.000
       0.000 -0.255 -0.018  0.000 -0.967
       0.835  0.000 -0.000  0.550  0.000
     occupation matrix ns (before diag.):
       0.740  0.385 -0.000 -0.122  0.000
       0.385  0.419 -0.000  0.183  0.000
      -0.000 -0.000  0.726  0.000 -0.410
      -0.122  0.183  0.000  0.939 -0.000
       0.000  0.000 -0.410 -0.000  0.373
     SPIN  2
     eigenvalues:
       0.993  0.993  0.998  0.998  0.998
     eigenvectors (columns):
      -0.577 -0.000 -0.815  0.000  0.043
       0.769  0.000 -0.560  0.000 -0.308
      -0.000  0.490 -0.000 -0.872 -0.000
      -0.275  0.000  0.145 -0.000 -0.950
      -0.000  0.872  0.000  0.490  0.000
     occupation matrix ns (before diag.):
       0.996  0.002 -0.000 -0.001  0.000
       0.002  0.995 -0.000  0.001  0.000
      -0.000 -0.000  0.997 -0.000 -0.002
      -0.001  0.001 -0.000  0.998 -0.000
       0.000  0.000 -0.002 -0.000  0.994

     Number of occupied Hubbard levels =   13.3629

     HUBBARD ENERGY =    0.1206  (Ry)

     total cpu time spent up to now is       94.1 secs

     total energy              =   -1120.12426996 Ry
     estimated scf accuracy    <       0.00000577 Ry

     total magnetization       =     3.00 Bohr mag/cell
     absolute magnetization    =     6.84 Bohr mag/cell

     iteration #  9     ecut=   120.00 Ry     beta= 0.70
     Davidson diagonalization with overlap

---- Real-time Memory Report at c_bands before calling an iterative solver
           224 MiB given to the printing process from OS
           179 MiB allocation reported by mallinfo(arena+hblkhd)
        708871 MiB available memory on the node where the printing process lives
------------------
     ethr =  5.30E-09,  avg # of iterations =  2.0

     =================== HUBBARD OCCUPATIONS ===================
     ------------------------ ATOM    1 ------------------------
     Tr[ns(  1)] (up, down, total) =   4.92967  0.25703  5.18670
     Atomic magnetic moment for atom   1 =   4.67264
     SPIN  1
     eigenvalues:
       0.972  0.972  0.995  0.995  0.995
     eigenvectors (columns):
       0.000  0.592  0.798  0.000  0.110
      -0.000 -0.772  0.601  0.000 -0.205
       0.534 -0.000  0.000 -0.846 -0.000
       0.000  0.230 -0.036  0.000 -0.973
       0.846 -0.000 -0.000  0.534  0.000
     occupation matrix ns (before diag.):
       0.987  0.010 -0.000 -0.003  0.000
       0.010  0.981 -0.000  0.004  0.000
      -0.000 -0.000  0.989 -0.000 -0.010
      -0.003  0.004 -0.000  0.994 -0.000
       0.000  0.000 -0.010 -0.000  0.979
     SPIN  2
     eigenvalues:
       0.024  0.024  0.029  0.089  0.089
     eigenvectors (columns):
      -0.000  0.845 -0.005  0.000  0.535
      -0.000  0.517 -0.249 -0.000 -0.819
      -0.828 -0.000 -0.000  0.561 -0.000
       0.000 -0.138 -0.968  0.000  0.208
       0.561  0.000 -0.000  0.828 -0.000
     occupation matrix ns (before diag.):
       0.043 -0.028  0.000  0.007  0.000
      -0.028  0.068 -0.000 -0.010  0.000
       0.000 -0.000  0.045 -0.000  0.030
       0.007 -0.010 -0.000  0.032 -0.000
       0.000  0.000  0.030 -0.000  0.069
     ------------------------ ATOM    2 ------------------------
     Tr[ns(  2)] (up, down, total) =   3.19635  4.97985  8.17620
     Atomic magnetic moment for atom   2 =  -1.78351
     SPIN  1
     eigenvalues:
       0.103  0.104  0.996  0.996  0.997
     eigenvectors (columns):
       0.000 -0.536  0.835  0.000  0.124
      -0.000  0.804  0.550  0.000 -0.225
       0.550  0.000  0.000 -0.835 -0.000
       0.000 -0.255 -0.021  0.000 -0.967
       0.835  0.000 -0.000  0.550  0.000
     occupation matrix ns (before diag.):
       0.740  0.385 -0.000 -0.122  0.000
       0.385  0.419 -0.000  0.183  0.000
      -0.000 -0.000  0.726  0.000 -0.411
      -0.122  0.183  0.000  0.939 -0.000
       0.000  0.000 -0.411 -0.000  0.373
     SPIN  2
     eigenvalues:
       0.993  0.993  0.998  0.998  0.998
     eigenvectors (columns):
      -0.577 -0.000 -0.816  0.000  0.041
       0.769  0.000 -0.560  0.000 -0.309
      -0.000  0.490 -0.000 -0.872 -0.000
      -0.275  0.000  0.147 -0.000 -0.950
      -0.000  0.872  0.000  0.490  0.000
     occupation matrix ns (before diag.):
       0.996  0.002 -0.000 -0.001  0.000
       0.002  0.995 -0.000  0.001  0.000
      -0.000 -0.000  0.997 -0.000 -0.002
      -0.001  0.001 -0.000  0.998 -0.000
       0.000  0.000 -0.002 -0.000  0.994

     Number of occupied Hubbard levels =   13.3629

     HUBBARD ENERGY =    0.1206  (Ry)

     total cpu time spent up to now is      103.7 secs

     total energy              =   -1120.12427141 Ry
     estimated scf accuracy    <       0.00000060 Ry

     total magnetization       =     3.00 Bohr mag/cell
     absolute magnetization    =     6.84 Bohr mag/cell

     iteration # 10     ecut=   120.00 Ry     beta= 0.70
     Davidson diagonalization with overlap

---- Real-time Memory Report at c_bands before calling an iterative solver
           224 MiB given to the printing process from OS
           179 MiB allocation reported by mallinfo(arena+hblkhd)
        708833 MiB available memory on the node where the printing process lives
------------------
     ethr =  5.46E-10,  avg # of iterations =  2.1

     =================== HUBBARD OCCUPATIONS ===================
     ------------------------ ATOM    1 ------------------------
     Tr[ns(  1)] (up, down, total) =   4.92966  0.25700  5.18666
     Atomic magnetic moment for atom   1 =   4.67267
     SPIN  1
     eigenvalues:
       0.972  0.972  0.995  0.995  0.995
     eigenvectors (columns):
       0.000  0.592  0.798  0.000  0.111
      -0.000 -0.772  0.601  0.000 -0.205
       0.534 -0.000  0.000 -0.846 -0.000
       0.000  0.230 -0.036  0.000 -0.973
       0.846 -0.000 -0.000  0.534  0.000
     occupation matrix ns (before diag.):
       0.987  0.010 -0.000 -0.003  0.000
       0.010  0.981 -0.000  0.004  0.000
      -0.000 -0.000  0.989 -0.000 -0.010
      -0.003  0.004 -0.000  0.994 -0.000
       0.000  0.000 -0.010 -0.000  0.979
     SPIN  2
     eigenvalues:
       0.024  0.024  0.029  0.089  0.089
     eigenvectors (columns):
      -0.000 -0.845  0.005  0.000  0.535
      -0.000 -0.517  0.249 -0.000 -0.819
      -0.828  0.000  0.000  0.561 -0.000
       0.000  0.138  0.968  0.000  0.208
       0.561 -0.000  0.000  0.828 -0.000
     occupation matrix ns (before diag.):
       0.043 -0.028  0.000  0.007  0.000
      -0.028  0.068 -0.000 -0.010  0.000
       0.000 -0.000  0.045 -0.000  0.030
       0.007 -0.010 -0.000  0.032 -0.000
       0.000  0.000  0.030 -0.000  0.069
     ------------------------ ATOM    2 ------------------------
     Tr[ns(  2)] (up, down, total) =   3.19636  4.97985  8.17621
     Atomic magnetic moment for atom   2 =  -1.78350
     SPIN  1
     eigenvalues:
       0.103  0.104  0.996  0.996  0.997
     eigenvectors (columns):
       0.000 -0.537  0.835  0.000  0.122
      -0.000  0.804  0.550  0.000 -0.226
       0.551  0.000  0.000 -0.835 -0.000
       0.000 -0.256 -0.023  0.000 -0.966
       0.835  0.000 -0.000  0.551  0.000
     occupation matrix ns (before diag.):
       0.739  0.385 -0.000 -0.123  0.000
       0.385  0.420 -0.000  0.184  0.000
      -0.000 -0.000  0.725  0.000 -0.411
      -0.123  0.184  0.000  0.938 -0.000
       0.000  0.000 -0.411 -0.000  0.374
     SPIN  2
     eigenvalues:
       0.993  0.993  0.998  0.998  0.998
     eigenvectors (columns):
      -0.577 -0.000 -0.816  0.000  0.040
       0.769  0.000 -0.559  0.000 -0.309
      -0.000  0.489 -0.000 -0.872 -0.000
      -0.275  0.000  0.148 -0.000 -0.950
      -0.000  0.872  0.000  0.489  0.000
     occupation matrix ns (before diag.):
       0.996  0.002 -0.000 -0.001  0.000
       0.002  0.995 -0.000  0.001  0.000
      -0.000 -0.000  0.997 -0.000 -0.002
      -0.001  0.001 -0.000  0.998 -0.000
       0.000  0.000 -0.002 -0.000  0.994

     Number of occupied Hubbard levels =   13.3629

     HUBBARD ENERGY =    0.1206  (Ry)

     total cpu time spent up to now is      113.4 secs

     total energy              =   -1120.12427203 Ry
     estimated scf accuracy    <       0.00000019 Ry

     total magnetization       =     3.00 Bohr mag/cell
     absolute magnetization    =     6.84 Bohr mag/cell

     iteration # 11     ecut=   120.00 Ry     beta= 0.70
     Davidson diagonalization with overlap

---- Real-time Memory Report at c_bands before calling an iterative solver
           225 MiB given to the printing process from OS
           180 MiB allocation reported by mallinfo(arena+hblkhd)
        708809 MiB available memory on the node where the printing process lives
------------------
     ethr =  1.75E-10,  avg # of iterations =  3.2

     =================== HUBBARD OCCUPATIONS ===================
     ------------------------ ATOM    1 ------------------------
     Tr[ns(  1)] (up, down, total) =   4.92966  0.25699  5.18665
     Atomic magnetic moment for atom   1 =   4.67267
     SPIN  1
     eigenvalues:
       0.972  0.972  0.995  0.995  0.995
     eigenvectors (columns):
       0.000  0.592  0.798  0.000  0.111
      -0.000 -0.772  0.601  0.000 -0.204
       0.534 -0.000  0.000 -0.846 -0.000
       0.000  0.230 -0.035  0.000 -0.973
       0.846 -0.000 -0.000  0.534  0.000
     occupation matrix ns (before diag.):
       0.987  0.010 -0.000 -0.003  0.000
       0.010  0.981 -0.000  0.004  0.000
      -0.000 -0.000  0.989 -0.000 -0.010
      -0.003  0.004 -0.000  0.994 -0.000
       0.000  0.000 -0.010 -0.000  0.979
     SPIN  2
     eigenvalues:
       0.024  0.024  0.029  0.089  0.089
     eigenvectors (columns):
      -0.000  0.845 -0.005  0.000  0.535
      -0.000  0.517 -0.249 -0.000 -0.819
      -0.828 -0.000 -0.000  0.561 -0.000
       0.000 -0.138 -0.968  0.000  0.208
       0.561  0.000 -0.000  0.828 -0.000
     occupation matrix ns (before diag.):
       0.043 -0.028  0.000  0.007  0.000
      -0.028  0.068 -0.000 -0.010  0.000
       0.000 -0.000  0.045 -0.000  0.030
       0.007 -0.010 -0.000  0.032 -0.000
       0.000  0.000  0.030 -0.000  0.069
     ------------------------ ATOM    2 ------------------------
     Tr[ns(  2)] (up, down, total) =   3.19631  4.97986  8.17617
     Atomic magnetic moment for atom   2 =  -1.78355
     SPIN  1
     eigenvalues:
       0.103  0.104  0.996  0.996  0.997
     eigenvectors (columns):
       0.000  0.537  0.835  0.000  0.121
      -0.000 -0.804  0.550  0.000 -0.227
       0.551 -0.000  0.000 -0.834 -0.000
       0.000  0.256 -0.025  0.000 -0.966
       0.834 -0.000 -0.000  0.551  0.000
     occupation matrix ns (before diag.):
       0.739  0.385 -0.000 -0.123  0.000
       0.385  0.420 -0.000  0.184  0.000
      -0.000 -0.000  0.725  0.000 -0.411
      -0.123  0.184  0.000  0.938 -0.000
       0.000  0.000 -0.411 -0.000  0.374
     SPIN  2
     eigenvalues:
       0.993  0.993  0.998  0.998  0.998
     eigenvectors (columns):
       0.577 -0.000 -0.816  0.000 -0.039
      -0.770  0.000 -0.558  0.000  0.310
       0.000  0.489 -0.000 -0.872  0.000
       0.275  0.000  0.148 -0.000  0.950
       0.000  0.872  0.000  0.489 -0.000
     occupation matrix ns (before diag.):
       0.996  0.002 -0.000 -0.001  0.000
       0.002  0.995 -0.000  0.001  0.000
      -0.000 -0.000  0.997 -0.000 -0.002
      -0.001  0.001 -0.000  0.998 -0.000
       0.000  0.000 -0.002 -0.000  0.994

     Number of occupied Hubbard levels =   13.3628

     HUBBARD ENERGY =    0.1206  (Ry)

     total cpu time spent up to now is      123.7 secs

     total energy              =   -1120.12427231 Ry
     estimated scf accuracy    <       0.00000007 Ry

     total magnetization       =     3.00 Bohr mag/cell
     absolute magnetization    =     6.84 Bohr mag/cell

     iteration # 12     ecut=   120.00 Ry     beta= 0.70
     Davidson diagonalization with overlap

---- Real-time Memory Report at c_bands before calling an iterative solver
           225 MiB given to the printing process from OS
           180 MiB allocation reported by mallinfo(arena+hblkhd)
        708802 MiB available memory on the node where the printing process lives
------------------
     ethr =  6.21E-11,  avg # of iterations =  2.9

     =================== HUBBARD OCCUPATIONS ===================
     ------------------------ ATOM    1 ------------------------
     Tr[ns(  1)] (up, down, total) =   4.92967  0.25700  5.18667
     Atomic magnetic moment for atom   1 =   4.67266
     SPIN  1
     eigenvalues:
       0.972  0.972  0.995  0.995  0.995
     eigenvectors (columns):
       0.000  0.592  0.798  0.000  0.111
      -0.000 -0.772  0.601  0.000 -0.204
       0.534 -0.000  0.000 -0.846 -0.000
       0.000  0.230 -0.035  0.000 -0.973
       0.846 -0.000 -0.000  0.534  0.000
     occupation matrix ns (before diag.):
       0.987  0.010 -0.000 -0.003  0.000
       0.010  0.981 -0.000  0.004  0.000
      -0.000 -0.000  0.989 -0.000 -0.010
      -0.003  0.004 -0.000  0.994 -0.000
       0.000  0.000 -0.010 -0.000  0.979
     SPIN  2
     eigenvalues:
       0.024  0.024  0.029  0.089  0.089
     eigenvectors (columns):
      -0.000  0.845 -0.005  0.000  0.535
      -0.000  0.517 -0.249 -0.000 -0.819
      -0.828 -0.000 -0.000  0.561 -0.000
       0.000 -0.138 -0.968  0.000  0.208
       0.561  0.000 -0.000  0.828 -0.000
     occupation matrix ns (before diag.):
       0.043 -0.028  0.000  0.007  0.000
      -0.028  0.068 -0.000 -0.010  0.000
       0.000 -0.000  0.045 -0.000  0.030
       0.007 -0.010 -0.000  0.032 -0.000
       0.000  0.000  0.030 -0.000  0.069
     ------------------------ ATOM    2 ------------------------
     Tr[ns(  2)] (up, down, total) =   3.19630  4.97986  8.17615
     Atomic magnetic moment for atom   2 =  -1.78356
     SPIN  1
     eigenvalues:
       0.103  0.104  0.996  0.996  0.997
     eigenvectors (columns):
       0.000 -0.537  0.835  0.000  0.120
      -0.000  0.804  0.550  0.000 -0.228
       0.551  0.000  0.000 -0.834 -0.000
       0.000 -0.257 -0.026  0.000 -0.966
       0.834  0.000 -0.000  0.551  0.000
     occupation matrix ns (before diag.):
       0.739  0.385 -0.000 -0.123  0.000
       0.385  0.420 -0.000  0.184  0.000
      -0.000 -0.000  0.725  0.000 -0.411
      -0.123  0.184  0.000  0.938 -0.000
       0.000  0.000 -0.411 -0.000  0.374
     SPIN  2
     eigenvalues:
       0.993  0.993  0.998  0.998  0.998
     eigenvectors (columns):
      -0.576 -0.000 -0.816  0.000  0.038
       0.770  0.000 -0.558  0.000 -0.310
      -0.000  0.489 -0.000 -0.872 -0.000
      -0.274  0.000  0.149 -0.000 -0.950
      -0.000  0.872  0.000  0.489  0.000
     occupation matrix ns (before diag.):
       0.996  0.002 -0.000 -0.001  0.000
       0.002  0.995 -0.000  0.001  0.000
      -0.000 -0.000  0.997 -0.000 -0.002
      -0.001  0.001 -0.000  0.998 -0.000
       0.000  0.000 -0.002 -0.000  0.994

     Number of occupied Hubbard levels =   13.3628

     HUBBARD ENERGY =    0.1206  (Ry)

     total cpu time spent up to now is      134.1 secs

     total energy              =   -1120.12427248 Ry
     estimated scf accuracy    <       0.00000002 Ry

     total magnetization       =     3.00 Bohr mag/cell
     absolute magnetization    =     6.84 Bohr mag/cell

     iteration # 13     ecut=   120.00 Ry     beta= 0.70
     Davidson diagonalization with overlap

---- Real-time Memory Report at c_bands before calling an iterative solver
           225 MiB given to the printing process from OS
           180 MiB allocation reported by mallinfo(arena+hblkhd)
        708803 MiB available memory on the node where the printing process lives
------------------
     ethr =  2.23E-11,  avg # of iterations =  2.8

     =================== HUBBARD OCCUPATIONS ===================
     ------------------------ ATOM    1 ------------------------
     Tr[ns(  1)] (up, down, total) =   4.92967  0.25700  5.18667
     Atomic magnetic moment for atom   1 =   4.67267
     SPIN  1
     eigenvalues:
       0.972  0.972  0.995  0.995  0.995
     eigenvectors (columns):
       0.000  0.592  0.798  0.000  0.111
      -0.000 -0.772  0.601  0.000 -0.204
       0.534 -0.000  0.000 -0.846 -0.000
       0.000  0.230 -0.035  0.000 -0.973
       0.846 -0.000 -0.000  0.534  0.000
     occupation matrix ns (before diag.):
       0.987  0.010 -0.000 -0.003  0.000
       0.010  0.981 -0.000  0.004  0.000
      -0.000 -0.000  0.989 -0.000 -0.010
      -0.003  0.004 -0.000  0.994 -0.000
       0.000  0.000 -0.010 -0.000  0.979
     SPIN  2
     eigenvalues:
       0.024  0.024  0.029  0.089  0.089
     eigenvectors (columns):
      -0.000 -0.845  0.005  0.000  0.535
      -0.000 -0.517  0.249 -0.000 -0.819
      -0.828  0.000  0.000  0.561 -0.000
       0.000  0.138  0.968  0.000  0.208
       0.561 -0.000 -0.000  0.828 -0.000
     occupation matrix ns (before diag.):
       0.043 -0.028  0.000  0.007  0.000
      -0.028  0.068 -0.000 -0.010  0.000
       0.000 -0.000  0.045 -0.000  0.030
       0.007 -0.010 -0.000  0.032 -0.000
       0.000  0.000  0.030 -0.000  0.069
     ------------------------ ATOM    2 ------------------------
     Tr[ns(  2)] (up, down, total) =   3.19630  4.97986  8.17616
     Atomic magnetic moment for atom   2 =  -1.78355
     SPIN  1
     eigenvalues:
       0.103  0.104  0.996  0.996  0.997
     eigenvectors (columns):
       0.000  0.537  0.835  0.000  0.120
      -0.000 -0.804  0.550  0.000 -0.229
       0.552 -0.000  0.000 -0.834 -0.000
       0.000  0.257 -0.026  0.000 -0.966
       0.834 -0.000 -0.000  0.552  0.000
     occupation matrix ns (before diag.):
       0.739  0.385 -0.000 -0.123  0.000
       0.385  0.420 -0.000  0.184  0.000
      -0.000 -0.000  0.725  0.000 -0.411
      -0.123  0.184  0.000  0.938 -0.000
       0.000  0.000 -0.411 -0.000  0.375
     SPIN  2
     eigenvalues:
       0.993  0.993  0.998  0.998  0.998
     eigenvectors (columns):
      -0.576 -0.000 -0.816  0.000  0.038
       0.770  0.000 -0.558  0.000 -0.310
      -0.000  0.489 -0.000 -0.872 -0.000
      -0.274  0.000  0.149 -0.000 -0.950
      -0.000  0.872  0.000  0.489  0.000
     occupation matrix ns (before diag.):
       0.996  0.002 -0.000 -0.001  0.000
       0.002  0.995 -0.000  0.001  0.000
      -0.000 -0.000  0.997 -0.000 -0.002
      -0.001  0.001 -0.000  0.998 -0.000
       0.000  0.000 -0.002 -0.000  0.994

     Number of occupied Hubbard levels =   13.3628

     HUBBARD ENERGY =    0.1206  (Ry)

     total cpu time spent up to now is      144.9 secs

     total energy              =   -1120.12427253 Ry
     estimated scf accuracy    <          7.0E-09 Ry

     total magnetization       =     3.00 Bohr mag/cell
     absolute magnetization    =     6.84 Bohr mag/cell

     iteration # 14     ecut=   120.00 Ry     beta= 0.70
     Davidson diagonalization with overlap

---- Real-time Memory Report at c_bands before calling an iterative solver
           225 MiB given to the printing process from OS
           180 MiB allocation reported by mallinfo(arena+hblkhd)
        712929 MiB available memory on the node where the printing process lives
------------------
     ethr =  6.42E-12,  avg # of iterations =  2.2

     =================== HUBBARD OCCUPATIONS ===================
     ------------------------ ATOM    1 ------------------------
     Tr[ns(  1)] (up, down, total) =   4.92967  0.25700  5.18667
     Atomic magnetic moment for atom   1 =   4.67267
     SPIN  1
     eigenvalues:
       0.972  0.972  0.995  0.995  0.995
     eigenvectors (columns):
       0.000  0.592  0.798  0.000  0.111
      -0.000 -0.772  0.601  0.000 -0.204
       0.534 -0.000  0.000 -0.846 -0.000
       0.000  0.230 -0.035  0.000 -0.973
       0.846 -0.000 -0.000  0.534  0.000
     occupation matrix ns (before diag.):
       0.987  0.010 -0.000 -0.003  0.000
       0.010  0.981 -0.000  0.004  0.000
      -0.000 -0.000  0.989 -0.000 -0.010
      -0.003  0.004 -0.000  0.994 -0.000
       0.000  0.000 -0.010 -0.000  0.979
     SPIN  2
     eigenvalues:
       0.024  0.024  0.029  0.089  0.089
     eigenvectors (columns):
      -0.000 -0.845  0.005  0.000  0.535
      -0.000 -0.517  0.249 -0.000 -0.819
      -0.828  0.000  0.000  0.561 -0.000
       0.000  0.138  0.968  0.000  0.208
       0.561 -0.000  0.000  0.828 -0.000
     occupation matrix ns (before diag.):
       0.043 -0.028  0.000  0.007  0.000
      -0.028  0.068 -0.000 -0.010  0.000
       0.000 -0.000  0.045 -0.000  0.030
       0.007 -0.010 -0.000  0.032 -0.000
       0.000  0.000  0.030 -0.000  0.069
     ------------------------ ATOM    2 ------------------------
     Tr[ns(  2)] (up, down, total) =   3.19631  4.97986  8.17616
     Atomic magnetic moment for atom   2 =  -1.78355
     SPIN  1
     eigenvalues:
       0.103  0.104  0.996  0.996  0.997
     eigenvectors (columns):
       0.000 -0.537  0.835  0.000  0.120
      -0.000  0.804  0.549  0.000 -0.229
       0.552  0.000  0.000 -0.834 -0.000
       0.000 -0.257 -0.026  0.000 -0.966
       0.834  0.000 -0.000  0.552  0.000
     occupation matrix ns (before diag.):
       0.739  0.385 -0.000 -0.123  0.000
       0.385  0.420 -0.000  0.184  0.000
      -0.000 -0.000  0.724  0.000 -0.411
      -0.123  0.184  0.000  0.938 -0.000
       0.000  0.000 -0.411 -0.000  0.375
     SPIN  2
     eigenvalues:
       0.993  0.993  0.998  0.998  0.998
     eigenvectors (columns):
       0.576 -0.000 -0.816  0.000 -0.038
      -0.770  0.000 -0.558  0.000  0.310
       0.000  0.489 -0.000 -0.872  0.000
       0.274  0.000  0.149 -0.000  0.950
       0.000  0.872  0.000  0.489 -0.000
     occupation matrix ns (before diag.):
       0.996  0.002 -0.000 -0.001  0.000
       0.002  0.995 -0.000  0.001  0.000
      -0.000 -0.000  0.997 -0.000 -0.002
      -0.001  0.001 -0.000  0.998 -0.000
       0.000  0.000 -0.002 -0.000  0.994

     Number of occupied Hubbard levels =   13.3628

     HUBBARD ENERGY =    0.1206  (Ry)

     total cpu time spent up to now is      154.6 secs

     total energy              =   -1120.12427254 Ry
     estimated scf accuracy    <          2.5E-09 Ry

     total magnetization       =     3.00 Bohr mag/cell
     absolute magnetization    =     6.84 Bohr mag/cell

     iteration # 15     ecut=   120.00 Ry     beta= 0.70
     Davidson diagonalization with overlap

---- Real-time Memory Report at c_bands before calling an iterative solver
           225 MiB given to the printing process from OS
           180 MiB allocation reported by mallinfo(arena+hblkhd)
        712929 MiB available memory on the node where the printing process lives
------------------
     ethr =  2.31E-12,  avg # of iterations =  3.0

     =================== HUBBARD OCCUPATIONS ===================
     ------------------------ ATOM    1 ------------------------
     Tr[ns(  1)] (up, down, total) =   4.92967  0.25700  5.18667
     Atomic magnetic moment for atom   1 =   4.67267
     SPIN  1
     eigenvalues:
       0.972  0.972  0.995  0.995  0.995
     eigenvectors (columns):
       0.000  0.592  0.798  0.000  0.111
      -0.000 -0.772  0.601  0.000 -0.204
       0.534 -0.000  0.000 -0.846 -0.000
       0.000  0.230 -0.035  0.000 -0.973
       0.846 -0.000 -0.000  0.534  0.000
     occupation matrix ns (before diag.):
       0.987  0.010 -0.000 -0.003  0.000
       0.010  0.981 -0.000  0.004  0.000
      -0.000 -0.000  0.989 -0.000 -0.010
      -0.003  0.004 -0.000  0.994 -0.000
       0.000  0.000 -0.010 -0.000  0.979
     SPIN  2
     eigenvalues:
       0.024  0.024  0.029  0.089  0.089
     eigenvectors (columns):
      -0.000 -0.845  0.005  0.000  0.535
      -0.000 -0.517  0.249 -0.000 -0.819
      -0.828  0.000  0.000  0.561 -0.000
       0.000  0.138  0.968  0.000  0.208
       0.561 -0.000 -0.000  0.828 -0.000
     occupation matrix ns (before diag.):
       0.043 -0.028  0.000  0.007  0.000
      -0.028  0.068 -0.000 -0.010  0.000
       0.000 -0.000  0.045 -0.000  0.030
       0.007 -0.010 -0.000  0.032 -0.000
       0.000  0.000  0.030 -0.000  0.069
     ------------------------ ATOM    2 ------------------------
     Tr[ns(  2)] (up, down, total) =   3.19631  4.97986  8.17616
     Atomic magnetic moment for atom   2 =  -1.78355
     SPIN  1
     eigenvalues:
       0.103  0.104  0.996  0.996  0.997
     eigenvectors (columns):
       0.000 -0.537 -0.835  0.000  0.120
      -0.000  0.804 -0.549  0.000 -0.229
       0.552  0.000 -0.000 -0.834 -0.000
       0.000 -0.257  0.026  0.000 -0.966
       0.834  0.000  0.000  0.552  0.000
     occupation matrix ns (before diag.):
       0.739  0.385 -0.000 -0.123  0.000
       0.385  0.420 -0.000  0.184  0.000
      -0.000 -0.000  0.724  0.000 -0.411
      -0.123  0.184  0.000  0.938 -0.000
       0.000  0.000 -0.411 -0.000  0.375
     SPIN  2
     eigenvalues:
       0.993  0.993  0.998  0.998  0.998
     eigenvectors (columns):
      -0.576 -0.000 -0.816  0.000  0.038
       0.770  0.000 -0.558  0.000 -0.310
      -0.000  0.489 -0.000 -0.872 -0.000
      -0.274  0.000  0.149 -0.000 -0.950
      -0.000  0.872  0.000  0.489  0.000
     occupation matrix ns (before diag.):
       0.996  0.002 -0.000 -0.001  0.000
       0.002  0.995 -0.000  0.001  0.000
      -0.000 -0.000  0.997 -0.000 -0.002
      -0.001  0.001 -0.000  0.998 -0.000
       0.000  0.000 -0.002 -0.000  0.994

     Number of occupied Hubbard levels =   13.3628

     HUBBARD ENERGY =    0.1206  (Ry)

     total cpu time spent up to now is      164.1 secs

     total energy              =   -1120.12427252 Ry
     estimated scf accuracy    <          1.8E-09 Ry

     total magnetization       =     3.00 Bohr mag/cell
     absolute magnetization    =     6.84 Bohr mag/cell

     iteration # 16     ecut=   120.00 Ry     beta= 0.70
     Davidson diagonalization with overlap

---- Real-time Memory Report at c_bands before calling an iterative solver
           225 MiB given to the printing process from OS
           180 MiB allocation reported by mallinfo(arena+hblkhd)
        712929 MiB available memory on the node where the printing process lives
------------------
     ethr =  1.63E-12,  avg # of iterations =  3.5

     =================== HUBBARD OCCUPATIONS ===================
     ------------------------ ATOM    1 ------------------------
     Tr[ns(  1)] (up, down, total) =   4.92967  0.25700  5.18667
     Atomic magnetic moment for atom   1 =   4.67267
     SPIN  1
     eigenvalues:
       0.972  0.972  0.995  0.995  0.995
     eigenvectors (columns):
       0.000  0.592  0.798  0.000  0.111
      -0.000 -0.772  0.601  0.000 -0.204
       0.534 -0.000  0.000 -0.846 -0.000
       0.000  0.230 -0.035  0.000 -0.973
       0.846 -0.000 -0.000  0.534  0.000
     occupation matrix ns (before diag.):
       0.987  0.010 -0.000 -0.003  0.000
       0.010  0.981 -0.000  0.004  0.000
      -0.000 -0.000  0.989 -0.000 -0.010
      -0.003  0.004 -0.000  0.994 -0.000
       0.000  0.000 -0.010 -0.000  0.979
     SPIN  2
     eigenvalues:
       0.024  0.024  0.029  0.089  0.089
     eigenvectors (columns):
      -0.000  0.845 -0.005  0.000  0.535
      -0.000  0.517 -0.249 -0.000 -0.819
      -0.828 -0.000 -0.000  0.561 -0.000
       0.000 -0.138 -0.968  0.000  0.208
       0.561  0.000 -0.000  0.828 -0.000
     occupation matrix ns (before diag.):
       0.043 -0.028  0.000  0.007  0.000
      -0.028  0.068 -0.000 -0.010  0.000
       0.000 -0.000  0.045 -0.000  0.030
       0.007 -0.010 -0.000  0.032 -0.000
       0.000  0.000  0.030 -0.000  0.069
     ------------------------ ATOM    2 ------------------------
     Tr[ns(  2)] (up, down, total) =   3.19630  4.97986  8.17616
     Atomic magnetic moment for atom   2 =  -1.78355
     SPIN  1
     eigenvalues:
       0.103  0.104  0.996  0.996  0.997
     eigenvectors (columns):
       0.000 -0.537 -0.835  0.000  0.120
      -0.000  0.804 -0.549  0.000 -0.229
       0.552  0.000 -0.000 -0.834 -0.000
       0.000 -0.257  0.026  0.000 -0.966
       0.834  0.000  0.000  0.552  0.000
     occupation matrix ns (before diag.):
       0.739  0.385 -0.000 -0.123  0.000
       0.385  0.420 -0.000  0.184  0.000
      -0.000 -0.000  0.724  0.000 -0.411
      -0.123  0.184  0.000  0.938 -0.000
       0.000  0.000 -0.411 -0.000  0.375
     SPIN  2
     eigenvalues:
       0.993  0.993  0.998  0.998  0.998
     eigenvectors (columns):
       0.576 -0.000 -0.816  0.000 -0.038
      -0.770  0.000 -0.558  0.000  0.310
       0.000  0.489 -0.000 -0.873  0.000
       0.274  0.000  0.149 -0.000  0.950
       0.000  0.873  0.000  0.489 -0.000
     occupation matrix ns (before diag.):
       0.996  0.002 -0.000 -0.001  0.000
       0.002  0.995 -0.000  0.001  0.000
      -0.000 -0.000  0.997 -0.000 -0.002
      -0.001  0.001 -0.000  0.998 -0.000
       0.000  0.000 -0.002 -0.000  0.994

     Number of occupied Hubbard levels =   13.3628

     HUBBARD ENERGY =    0.1206  (Ry)
 
     Magnetic moment per site  (integrated on atomic sphere of radius R)
     atom   1 (R=0.184)  charge= 12.2390  magn=  4.0953
     atom   2 (R=0.182)  charge= 15.4562  magn= -1.7479
     atom   3 (R=0.159)  charge=  7.6949  magn=  0.0139
     atom   4 (R=0.159)  charge=  7.6951  magn=  0.0301
     atom   5 (R=0.159)  charge=  5.0056  magn= -0.0118
     atom   6 (R=0.159)  charge=  5.0056  magn= -0.0118
     atom   7 (R=0.159)  charge=  5.0067  magn= -0.0079
     atom   8 (R=0.159)  charge=  5.0067  magn= -0.0079
     atom   9 (R=0.159)  charge=  5.0248  magn=  0.0039
     atom  10 (R=0.159)  charge=  5.0248  magn=  0.0039
     atom  11 (R=0.159)  charge=  4.9941  magn= -0.0092
     atom  12 (R=0.159)  charge=  4.9941  magn= -0.0092

     total cpu time spent up to now is      175.4 secs

     End of self-consistent calculation

 ------ SPIN UP ------------


          k = 0.0832 0.0683 0.0787 ( 19362 PWs)   bands (ev):

   -91.7046 -68.8865 -64.3203 -64.3083 -52.1453 -52.1404 -52.1278 -37.9417
   -37.9332 -37.9171 -28.7592 -28.7058 -28.6722 -28.6138 -28.5947 -28.5339
    -8.5257  -7.3301  -7.1053  -6.9881  -6.8455  -6.6871  -6.4931  -6.2539
     3.4425   3.6167   3.9117   4.0238   4.2296   4.7474   4.8787   5.0600
     5.4524   5.5828   5.6232   5.9514   6.2947   6.4046   6.6008   6.7444
     6.8340   7.0875   7.3627   7.6800   7.7490   8.0452   8.1282   8.2110
     8.5076   8.7237   8.8912   9.0362   9.3226   9.4477   9.9824  10.3448
    13.1541  13.4076  13.6548  13.9132  14.2134  14.5548  15.2163  15.4774
    16.3432  17.3515

     occupation numbers 
     1.0000   1.0000   1.0000   1.0000   1.0000   1.0000   1.0000   1.0000
     1.0000   1.0000   1.0000   1.0000   1.0000   1.0000   1.0000   1.0000
     1.0000   1.0000   1.0000   1.0000   1.0000   1.0000   1.0000   1.0000
     1.0000   1.0000   1.0000   1.0000   1.0000   1.0000   1.0000   1.0000
     1.0000   1.0000   1.0000   1.0000   1.0000   1.0000   1.0000   1.0000
     1.0000   1.0000   1.0000   1.0000   1.0000   1.0000   1.0000   1.0000
     1.0000   1.0000   1.0000   1.0000   1.0000   1.0000   1.0000   1.0000
     0.0000   0.0000   0.0000   0.0000   0.0000   0.0000   0.0000   0.0000
     0.0000   0.0000

          k = 0.0829 0.0683 0.2349 ( 19337 PWs)   bands (ev):

   -91.7047 -68.8865 -64.3194 -64.3092 -52.1452 -52.1404 -52.1279 -37.9417
   -37.9332 -37.9171 -28.7579 -28.7170 -28.6650 -28.6249 -28.5847 -28.5311
    -8.3303  -7.3809  -7.2435  -7.0888  -6.7552  -6.6601  -6.5123  -6.2874
     3.6012   3.6907   3.9153   4.0978   4.3230   4.4901   4.6394   5.1636
     5.2717   5.6163   5.7895   6.0097   6.1495   6.3243   6.7693   6.8390
     6.9811   7.0927   7.2889   7.5220   7.6933   7.9448   8.0291   8.2628
     8.4338   8.7185   8.9467   9.0902   9.1864   9.4219  10.2116  10.4649
[...]
     1.0000   1.0000   1.0000   1.0000   1.0000   1.0000   1.0000   1.0000
     1.0000   1.0000   1.0000   1.0000   1.0000   0.0000   0.0000   0.0000
     0.0000   0.0000   0.0000   0.0000   0.0000   0.0000   0.0000   0.0000
     0.0000   0.0000

          k = 0.4165 0.2050 0.0814 ( 19350 PWs)   bands (ev):

   -93.6693 -64.3097 -64.2956 -64.2812 -54.2686 -54.2593 -54.2301 -33.1125
   -33.1008 -33.0895 -28.7198 -28.6750 -28.6436 -28.5785 -28.5531 -28.5101
    -8.1220  -7.4645  -7.3004  -7.0480  -6.8722  -6.6409  -6.5580  -6.3935
     2.3309   2.3957   3.3776   3.4749   3.7550   4.0608   4.3605   4.7418
     5.0211   5.2277   5.4593   5.8003   6.0302   6.1480   6.3194   6.7906
     6.9129   7.2554   7.4519   7.6726   7.9017   8.3218   8.4279   8.5350
     8.7766   8.9435   9.1905   9.2525   9.5123  13.2243  13.5328  13.6369
    14.0463  14.1827  14.6773  16.3246  16.3897  16.5311  17.1889  17.2645
    17.5904  17.9132

     occupation numbers 
     1.0000   1.0000   1.0000   1.0000   1.0000   1.0000   1.0000   1.0000
     1.0000   1.0000   1.0000   1.0000   1.0000   1.0000   1.0000   1.0000
     1.0000   1.0000   1.0000   1.0000   1.0000   1.0000   1.0000   1.0000
     1.0000   1.0000   1.0000   1.0000   1.0000   1.0000   1.0000   1.0000
     1.0000   1.0000   1.0000   1.0000   1.0000   1.0000   1.0000   1.0000
     1.0000   1.0000   1.0000   1.0000   1.0000   1.0000   1.0000   1.0000
     1.0000   1.0000   1.0000   1.0000   1.0000   0.0000   0.0000   0.0000
     0.0000   0.0000   0.0000   0.0000   0.0000   0.0000   0.0000   0.0000
     0.0000   0.0000

          k = 0.4162 0.2050 0.2375 ( 19351 PWs)   bands (ev):

   -93.6693 -64.3097 -64.2950 -64.2818 -54.2686 -54.2593 -54.2301 -33.1125
   -33.1007 -33.0895 -28.7232 -28.6805 -28.6361 -28.5910 -28.5469 -28.5031
    -7.9728  -7.4877  -7.2714  -7.1052  -6.9312  -6.7218  -6.5183  -6.3996
     2.3396   2.4141   3.3937   3.5257   3.7555   4.0813   4.5393   4.6376
     4.8296   5.0286   5.3395   5.5738   5.9698   6.2088   6.4879   6.8714
     7.1150   7.4693   7.5457   7.7547   7.8927   8.1819   8.3746   8.5642
     8.7560   8.9814   9.1172   9.3035   9.4506  13.1762  13.5990  13.8020
    13.9825  14.1504  14.5764  16.2356  16.3754  16.5214  17.0556  17.2436
    17.5859  17.9465

     occupation numbers 
     1.0000   1.0000   1.0000   1.0000   1.0000   1.0000   1.0000   1.0000
     1.0000   1.0000   1.0000   1.0000   1.0000   1.0000   1.0000   1.0000
     1.0000   1.0000   1.0000   1.0000   1.0000   1.0000   1.0000   1.0000
     1.0000   1.0000   1.0000   1.0000   1.0000   1.0000   1.0000   1.0000
     1.0000   1.0000   1.0000   1.0000   1.0000   1.0000   1.0000   1.0000
     1.0000   1.0000   1.0000   1.0000   1.0000   1.0000   1.0000   1.0000
     1.0000   1.0000   1.0000   1.0000   1.0000   0.0000   0.0000   0.0000
     0.0000   0.0000   0.0000   0.0000   0.0000   0.0000   0.0000   0.0000
     0.0000   0.0000

          k = 0.4159 0.2050 0.3936 ( 19353 PWs)   bands (ev):

   -93.6693 -64.3098 -64.2943 -64.2824 -54.2686 -54.2593 -54.2301 -33.1126
   -33.1007 -33.0896 -28.7259 -28.6860 -28.6253 -28.6051 -28.5417 -28.4973
    -7.7254  -7.5061  -7.3328  -7.2103  -6.9426  -6.8046  -6.4953  -6.4037
     2.3631   2.4337   3.4586   3.5721   3.8041   4.0594   4.3138   4.4482
     4.6328   5.1756   5.4665   5.7542   5.8627   6.4047   6.4957   6.9473
     6.9961   7.2502   7.4061   7.8507   7.9742   8.2091   8.5389   8.6530
     8.7814   9.0045   9.0295   9.2091   9.4604  13.2959  13.5514  13.8249
    13.9885  14.1117  14.3750  16.2210  16.3597  16.4487  16.9984  17.2156
    17.6102  17.7340

     occupation numbers 
     1.0000   1.0000   1.0000   1.0000   1.0000   1.0000   1.0000   1.0000
     1.0000   1.0000   1.0000   1.0000   1.0000   1.0000   1.0000   1.0000
     1.0000   1.0000   1.0000   1.0000   1.0000   1.0000   1.0000   1.0000
     1.0000   1.0000   1.0000   1.0000   1.0000   1.0000   1.0000   1.0000
     1.0000   1.0000   1.0000   1.0000   1.0000   1.0000   1.0000   1.0000
     1.0000   1.0000   1.0000   1.0000   1.0000   1.0000   1.0000   1.0000
     1.0000   1.0000   1.0000   1.0000   1.0000   0.0000   0.0000   0.0000
     0.0000   0.0000   0.0000   0.0000   0.0000   0.0000   0.0000   0.0000
     0.0000   0.0000

          k = 0.4174 0.2050-0.3870 ( 19347 PWs)   bands (ev):

   -93.6693 -64.3098 -64.2943 -64.2823 -54.2686 -54.2593 -54.2301 -33.1126
   -33.1007 -33.0896 -28.7259 -28.6859 -28.6253 -28.6052 -28.5417 -28.4973
    -7.7353  -7.4720  -7.3482  -7.1919  -6.9098  -6.8747  -6.5055  -6.3881
     2.3640   2.4371   3.5114   3.5583   3.8023   4.0517   4.2257   4.4025
     4.7184   5.2155   5.5085   5.7443   5.9074   6.3986   6.5848   6.8392
     6.9332   7.2263   7.4376   7.8637   8.0243   8.2260   8.4511   8.6603
     8.7879   8.8533   9.1003   9.2054   9.5077  13.2546  13.5990  13.8368
    13.9129  14.1051  14.3151  16.2805  16.3359  16.4353  17.0455  17.2601
    17.5947  17.7537

     occupation numbers 
     1.0000   1.0000   1.0000   1.0000   1.0000   1.0000   1.0000   1.0000
     1.0000   1.0000   1.0000   1.0000   1.0000   1.0000   1.0000   1.0000
     1.0000   1.0000   1.0000   1.0000   1.0000   1.0000   1.0000   1.0000
     1.0000   1.0000   1.0000   1.0000   1.0000   1.0000   1.0000   1.0000
     1.0000   1.0000   1.0000   1.0000   1.0000   1.0000   1.0000   1.0000
     1.0000   1.0000   1.0000   1.0000   1.0000   1.0000   1.0000   1.0000
     1.0000   1.0000   1.0000   1.0000   1.0000   0.0000   0.0000   0.0000
     0.0000   0.0000   0.0000   0.0000   0.0000   0.0000   0.0000   0.0000
     0.0000   0.0000

          k = 0.4171 0.2050-0.2309 ( 19348 PWs)   bands (ev):

   -93.6693 -64.3097 -64.2950 -64.2817 -54.2686 -54.2593 -54.2301 -33.1125
   -33.1008 -33.0895 -28.7231 -28.6806 -28.6360 -28.5911 -28.5468 -28.5031
    -7.9821  -7.4504  -7.2069  -7.0962  -7.0087  -6.7903  -6.5049  -6.3775
     2.3430   2.4092   3.4646   3.5444   3.7347   4.0291   4.4329   4.5167
     4.9704   5.2323   5.3634   5.6658   5.8709   6.2933   6.4631   6.7711
     7.1210   7.3806   7.5998   7.8062   7.9234   8.1831   8.2185   8.6025
     8.7083   8.8436   9.1791   9.3106   9.5011  13.1530  13.6180  13.8190
    13.9015  14.0387  14.5129  16.3048  16.3493  16.5222  17.0947  17.3244
    17.6165  18.0105

     occupation numbers 
     1.0000   1.0000   1.0000   1.0000   1.0000   1.0000   1.0000   1.0000
     1.0000   1.0000   1.0000   1.0000   1.0000   1.0000   1.0000   1.0000
     1.0000   1.0000   1.0000   1.0000   1.0000   1.0000   1.0000   1.0000
     1.0000   1.0000   1.0000   1.0000   1.0000   1.0000   1.0000   1.0000
     1.0000   1.0000   1.0000   1.0000   1.0000   1.0000   1.0000   1.0000
     1.0000   1.0000   1.0000   1.0000   1.0000   1.0000   1.0000   1.0000
     1.0000   1.0000   1.0000   1.0000   1.0000   0.0000   0.0000   0.0000
     0.0000   0.0000   0.0000   0.0000   0.0000   0.0000   0.0000   0.0000
     0.0000   0.0000

          k = 0.4168 0.2050-0.0748 ( 19345 PWs)   bands (ev):

   -93.6693 -64.3097 -64.2956 -64.2812 -54.2686 -54.2593 -54.2301 -33.1125
   -33.1008 -33.0895 -28.7198 -28.6751 -28.6435 -28.5786 -28.5530 -28.5101
    -8.1258  -7.4528  -7.2573  -7.0361  -6.9476  -6.6690  -6.5366  -6.3786
     2.3313   2.3899   3.4156   3.4794   3.7446   4.0243   4.3937   4.6491
     5.0033   5.4088   5.5385   5.7718   5.9179   6.1845   6.4097   6.6617
     6.9641   7.2009   7.4969   7.6291   7.9347   8.2598   8.4128   8.5594
     8.7250   8.9575   9.1358   9.3528   9.4831  13.2403  13.5368  13.6016
    14.0058  14.1439  14.6527  16.3411  16.3849  16.5375  17.1418  17.3454
    17.6674  17.9717

     occupation numbers 
     1.0000   1.0000   1.0000   1.0000   1.0000   1.0000   1.0000   1.0000
     1.0000   1.0000   1.0000   1.0000   1.0000   1.0000   1.0000   1.0000
     1.0000   1.0000   1.0000   1.0000   1.0000   1.0000   1.0000   1.0000
     1.0000   1.0000   1.0000   1.0000   1.0000   1.0000   1.0000   1.0000
     1.0000   1.0000   1.0000   1.0000   1.0000   1.0000   1.0000   1.0000
     1.0000   1.0000   1.0000   1.0000   1.0000   1.0000   1.0000   1.0000
     1.0000   1.0000   1.0000   1.0000   1.0000   0.0000   0.0000   0.0000
     0.0000   0.0000   0.0000   0.0000   0.0000   0.0000   0.0000   0.0000
     0.0000   0.0000

          k = 0.4165 0.3416 0.0814 ( 19334 PWs)   bands (ev):

   -93.6693 -64.3097 -64.2955 -64.2813 -54.2686 -54.2593 -54.2301 -33.1125
   -33.1008 -33.0895 -28.7194 -28.6739 -28.6433 -28.5789 -28.5543 -28.5104
    -8.0529  -7.5442  -7.3287  -7.0502  -6.8951  -6.6456  -6.5098  -6.3675
     2.2901   2.3379   3.3255   3.4714   3.7145   3.9911   4.5175   4.9433
     5.1390   5.2388   5.6512   5.8160   5.9801   6.1844   6.3989   6.6559
     6.9052   7.1528   7.4659   7.6122   7.8388   8.0972   8.4178   8.5527
     8.7993   8.9473   9.0470   9.2447   9.4425  13.1659  13.6050  13.6919
    14.0867  14.1947  14.6849  16.2733  16.4104  16.5399  17.1432  17.1784
    17.4641  18.1280

     occupation numbers 
     1.0000   1.0000   1.0000   1.0000   1.0000   1.0000   1.0000   1.0000
     1.0000   1.0000   1.0000   1.0000   1.0000   1.0000   1.0000   1.0000
     1.0000   1.0000   1.0000   1.0000   1.0000   1.0000   1.0000   1.0000
     1.0000   1.0000   1.0000   1.0000   1.0000   1.0000   1.0000   1.0000
     1.0000   1.0000   1.0000   1.0000   1.0000   1.0000   1.0000   1.0000
     1.0000   1.0000   1.0000   1.0000   1.0000   1.0000   1.0000   1.0000
     1.0000   1.0000   1.0000   1.0000   1.0000   0.0000   0.0000   0.0000
     0.0000   0.0000   0.0000   0.0000   0.0000   0.0000   0.0000   0.0000
     0.0000   0.0000

          k = 0.4162 0.3416 0.2375 ( 19330 PWs)   bands (ev):

   -93.6693 -64.3097 -64.2948 -64.2818 -54.2686 -54.2593 -54.2301 -33.1125
   -33.1008 -33.0896 -28.7236 -28.6804 -28.6356 -28.5913 -28.5472 -28.5027
    -7.9266  -7.5658  -7.2980  -7.1079  -6.8696  -6.7290  -6.5235  -6.3791
     2.3004   2.3474   3.3469   3.5293   3.6742   4.0291   4.6129   4.7323
     4.9798   5.1255   5.4710   5.7394   5.8710   6.3494   6.6067   6.7960
     6.9333   7.3762   7.6167   7.6503   7.8825   8.1592   8.2920   8.5336
     8.6738   8.9428   9.0131   9.2670   9.3746  13.1487  13.6655  13.8068
    14.0153  14.1473  14.5880  16.1815  16.3986  16.4713  17.0147  17.2207
    17.4700  18.0130

     occupation numbers 
     1.0000   1.0000   1.0000   1.0000   1.0000   1.0000   1.0000   1.0000
     1.0000   1.0000   1.0000   1.0000   1.0000   1.0000   1.0000   1.0000
     1.0000   1.0000   1.0000   1.0000   1.0000   1.0000   1.0000   1.0000
     1.0000   1.0000   1.0000   1.0000   1.0000   1.0000   1.0000   1.0000
     1.0000   1.0000   1.0000   1.0000   1.0000   1.0000   1.0000   1.0000
     1.0000   1.0000   1.0000   1.0000   1.0000   1.0000   1.0000   1.0000
     1.0000   1.0000   1.0000   1.0000   1.0000   0.0000   0.0000   0.0000
     0.0000   0.0000   0.0000   0.0000   0.0000   0.0000   0.0000   0.0000
     0.0000   0.0000

          k = 0.4159 0.3416 0.3936 ( 19333 PWs)   bands (ev):

   -93.6693 -64.3098 -64.2942 -64.2825 -54.2686 -54.2593 -54.2301 -33.1126
   -33.1007 -33.0896 -28.7271 -28.6867 -28.6249 -28.6051 -28.5409 -28.4964
    -7.7259  -7.5707  -7.3193  -7.2297  -6.8562  -6.7680  -6.5342  -6.4051
     2.3063   2.3701   3.4256   3.5787   3.7251   4.0171   4.3810   4.4736
     4.8179   5.2703   5.5842   5.7117   5.8965   6.3173   6.7047   6.9173
     7.0731   7.3347   7.5247   7.8487   7.9198   8.0558   8.4167   8.5337
     8.6682   8.8630   8.9876   9.1937   9.3670  13.2647  13.6398  13.7740
    13.9390  14.1622  14.3933  16.1470  16.3394  16.3638  16.9846  17.2033
    17.5696  17.8362

     occupation numbers 
     1.0000   1.0000   1.0000   1.0000   1.0000   1.0000   1.0000   1.0000
     1.0000   1.0000   1.0000   1.0000   1.0000   1.0000   1.0000   1.0000
     1.0000   1.0000   1.0000   1.0000   1.0000   1.0000   1.0000   1.0000
     1.0000   1.0000   1.0000   1.0000   1.0000   1.0000   1.0000   1.0000
     1.0000   1.0000   1.0000   1.0000   1.0000   1.0000   1.0000   1.0000
     1.0000   1.0000   1.0000   1.0000   1.0000   1.0000   1.0000   1.0000
     1.0000   1.0000   1.0000   1.0000   1.0000   0.0000   0.0000   0.0000
     0.0000   0.0000   0.0000   0.0000   0.0000   0.0000   0.0000   0.0000
     0.0000   0.0000

          k = 0.4174 0.3416-0.3870 ( 19349 PWs)   bands (ev):

   -93.6693 -64.3098 -64.2942 -64.2824 -54.2686 -54.2593 -54.2301 -33.1126
   -33.1008 -33.0896 -28.7271 -28.6867 -28.6249 -28.6053 -28.5409 -28.4964
    -7.7282  -7.5169  -7.3712  -7.2215  -6.8504  -6.7937  -6.5478  -6.3834
     2.3007   2.3799   3.4544   3.5816   3.8149   4.0388   4.2101   4.4487
     4.8426   5.2304   5.5848   5.7107   5.9965   6.4632   6.5345   6.9035
     7.0251   7.4773   7.6300   7.7661   7.8937   8.0780   8.3652   8.5088
     8.7224   8.7773   9.0083   9.0737   9.4702  13.2274  13.6732  13.7693
    13.9164  14.1480  14.2823  16.1985  16.2783  16.3866  17.0228  17.2336
    17.6700  17.7743

     occupation numbers 
     1.0000   1.0000   1.0000   1.0000   1.0000   1.0000   1.0000   1.0000
     1.0000   1.0000   1.0000   1.0000   1.0000   1.0000   1.0000   1.0000
     1.0000   1.0000   1.0000   1.0000   1.0000   1.0000   1.0000   1.0000
     1.0000   1.0000   1.0000   1.0000   1.0000   1.0000   1.0000   1.0000
     1.0000   1.0000   1.0000   1.0000   1.0000   1.0000   1.0000   1.0000
     1.0000   1.0000   1.0000   1.0000   1.0000   1.0000   1.0000   1.0000
     1.0000   1.0000   1.0000   1.0000   1.0000   0.0000   0.0000   0.0000
     0.0000   0.0000   0.0000   0.0000   0.0000   0.0000   0.0000   0.0000
     0.0000   0.0000

          k = 0.4171 0.3416-0.2309 ( 19319 PWs)   bands (ev):

   -93.6693 -64.3097 -64.2949 -64.2818 -54.2686 -54.2593 -54.2301 -33.1125
   -33.1008 -33.0895 -28.7235 -28.6805 -28.6355 -28.5915 -28.5471 -28.5027
    -7.9258  -7.5261  -7.2586  -7.1222  -6.9652  -6.7646  -6.4874  -6.3576
     2.2907   2.3569   3.4033   3.5360   3.7801   4.0096   4.4565   4.6696
     4.9488   5.2450   5.4060   5.7217   5.8971   6.3318   6.6458   6.9383
     7.0945   7.2964   7.5999   7.7174   7.8161   8.0730   8.2636   8.5532
     8.6666   8.7928   9.0597   9.1937   9.4681  13.1257  13.7107  13.8263
    13.9247  14.0081  14.4791  16.2344  16.3421  16.4929  17.0345  17.3031
    17.6360  17.9856

     occupation numbers 
     1.0000   1.0000   1.0000   1.0000   1.0000   1.0000   1.0000   1.0000
     1.0000   1.0000   1.0000   1.0000   1.0000   1.0000   1.0000   1.0000
     1.0000   1.0000   1.0000   1.0000   1.0000   1.0000   1.0000   1.0000
     1.0000   1.0000   1.0000   1.0000   1.0000   1.0000   1.0000   1.0000
     1.0000   1.0000   1.0000   1.0000   1.0000   1.0000   1.0000   1.0000
     1.0000   1.0000   1.0000   1.0000   1.0000   1.0000   1.0000   1.0000
     1.0000   1.0000   1.0000   1.0000   1.0000   0.0000   0.0000   0.0000
     0.0000   0.0000   0.0000   0.0000   0.0000   0.0000   0.0000   0.0000
     0.0000   0.0000

          k = 0.4168 0.3416-0.0748 ( 19327 PWs)   bands (ev):

   -93.6693 -64.3097 -64.2955 -64.2813 -54.2686 -54.2593 -54.2301 -33.1125
   -33.1008 -33.0895 -28.7193 -28.6740 -28.6432 -28.5790 -28.5542 -28.5105
    -8.0529  -7.5376  -7.2758  -7.0506  -6.9830  -6.6625  -6.4807  -6.3547
     2.2849   2.3391   3.3556   3.4684   3.7581   3.9732   4.5708   4.7981
     5.1041   5.3606   5.5171   5.8387   5.9993   6.1733   6.4798   6.7040
     6.9992   7.0921   7.4750   7.6133   7.7990   8.1213   8.2936   8.6175
     8.7901   8.8721   9.0737   9.2990   9.4066  13.1753  13.6355  13.6568
    14.0218  14.1537  14.6461  16.2885  16.3895  16.5469  17.0612  17.3396
    17.5219  18.1450

     occupation numbers 
     1.0000   1.0000   1.0000   1.0000   1.0000   1.0000   1.0000   1.0000
     1.0000   1.0000   1.0000   1.0000   1.0000   1.0000   1.0000   1.0000
     1.0000   1.0000   1.0000   1.0000   1.0000   1.0000   1.0000   1.0000
     1.0000   1.0000   1.0000   1.0000   1.0000   1.0000   1.0000   1.0000
     1.0000   1.0000   1.0000   1.0000   1.0000   1.0000   1.0000   1.0000
     1.0000   1.0000   1.0000   1.0000   1.0000   1.0000   1.0000   1.0000
     1.0000   1.0000   1.0000   1.0000   1.0000   0.0000   0.0000   0.0000
     0.0000   0.0000   0.0000   0.0000   0.0000   0.0000   0.0000   0.0000
     0.0000   0.0000

     the Fermi energy is    11.9136 ev

!    total energy              =   -1120.12427255 Ry
     estimated scf accuracy    <          7.1E-10 Ry
     smearing contrib. (-TS)   =       0.00000000 Ry
     internal energy E=F+TS    =   -1120.12427256 Ry

     The total energy is F=E-TS. E is the sum of the following terms:
     one-electron contribution =    -492.79446604 Ry
     hartree contribution      =     303.43877123 Ry
     xc contribution           =    -210.63834696 Ry
     ewald contribution        =    -720.25080420 Ry
     Hubbard energy            =       0.12057342 Ry

     total magnetization       =     3.00 Bohr mag/cell
     absolute magnetization    =     6.84 Bohr mag/cell

     convergence has been achieved in  16 iterations

     Writing all to output data dir ./tmp/MnNiWO4_AFM/MnNiWO4_AFM.save/ :
     XML data file, charge density
     init_run     :      4.06s CPU      4.17s WALL (       1 calls)
     electrons    :    169.20s CPU    171.19s WALL (       1 calls)

     Called by init_run:
     wfcinit      :      4.00s CPU      4.10s WALL (       1 calls)
     wfcinit:atom :      0.02s CPU      0.02s WALL (     108 calls)
     wfcinit:wfcr :      3.11s CPU      3.19s WALL (     108 calls)
     potinit      :      0.01s CPU      0.02s WALL (       1 calls)
     hinit0       :      0.01s CPU      0.02s WALL (       1 calls)

     Called by electrons:
     c_bands      :    151.87s CPU    153.53s WALL (      16 calls)
     sum_band     :     16.99s CPU     17.25s WALL (      16 calls)
     v_of_rho     :      0.15s CPU      0.16s WALL (      17 calls)
     v_h          :      0.00s CPU      0.00s WALL (      17 calls)
     v_xc         :      0.15s CPU      0.15s WALL (      17 calls)
     mix_rho      :      0.19s CPU      0.19s WALL (      16 calls)

     Called by c_bands:
     init_us_2    :      2.52s CPU      2.61s WALL (    3672 calls)
     cegterg      :    140.49s CPU    141.95s WALL (    1728 calls)

     Called by sum_band:
     sum_band:wei :      0.09s CPU      0.09s WALL (      16 calls)
     sum_band:loo :     15.98s CPU     16.20s WALL (      16 calls)
     sum_band:buf :      0.24s CPU      0.25s WALL (    1728 calls)
     sum_band:ini :      0.76s CPU      0.77s WALL (    1728 calls)

     Called by *egterg:
     cdiaghg      :     22.54s CPU     22.66s WALL (    7133 calls)
     cegterg:over :      7.07s CPU      7.13s WALL (    5405 calls)
     cegterg:upda :      3.90s CPU      3.94s WALL (    5405 calls)
     cegterg:last :      7.38s CPU      7.43s WALL (    3550 calls)
     h_psi        :     98.37s CPU     99.62s WALL (    7241 calls)
     g_psi        :      0.32s CPU      0.32s WALL (    5405 calls)

     Called by h_psi:
     h_psi:calbec :     11.30s CPU     11.41s WALL (    7241 calls)
     vloc_psi     :     72.92s CPU     73.95s WALL (    7241 calls)
     add_vuspsi   :     10.25s CPU     10.34s WALL (    7241 calls)
     vhpsi        :      3.37s CPU      3.40s WALL (    7241 calls)

     General routines
     calbec       :     15.00s CPU     15.16s WALL (   16318 calls)
     fft          :      0.06s CPU      0.07s WALL (     321 calls)
     ffts         :      0.11s CPU      0.11s WALL (     513 calls)
     fftw         :     82.48s CPU     83.62s WALL (  695538 calls)
 
     Parallel routines

     Hubbard U routines
     new_ns       :      0.90s CPU      0.93s WALL (      16 calls)
     vhpsi        :      3.37s CPU      3.40s WALL (    7241 calls)
 
     PWSCF        :   2m53.33s CPU   2m55.59s WALL

 
   This run was terminated on:   8:56: 7   9Mar2026            

=------------------------------------------------------------------------------=
   JOB DONE.
=------------------------------------------------------------------------------=
