
     Program PWSCF v.7.4.1 starts on  9Mar2026 at  8:53:12 
        Git branch: heads/qe-7.4.1
        Last git commit: 500de340b820e1cb8c05f2d8bb8fced102f377c1-dirty
        Last git commit date: Fri Feb 7 14:59:05 2025 +0000
        Last git commit subject: Merge branch 'qe-7.4.1' into 'master'

     This program is part of the open-source Quantum ESPRESSO suite
     for quantum simulation of materials; please cite
         "P. Giannozzi et al., J. Phys.:Condens. Matter 21 395502 (2009);
         "P. Giannozzi et al., J. Phys.:Condens. Matter 29 465901 (2017);
         "P. Giannozzi et al., J. Chem. Phys. 152 154105 (2020);
          URL http://www.quantum-espresso.org", 
     in publications or presentations arising from this work. More details at
     http://www.quantum-espresso.org/quote

     Parallel version (MPI), running on    24 processors

     MPI processes distributed on     1 nodes
     678336 MiB available memory on the printing compute node when the environment starts
 
     Reading input from inputs_FM/MnNiWO4_FM.in

     Current dimensions of program PWSCF are:
     Max number of different atomic species (ntypx) = 10
     Max number of k-points (npk) =  40000
     Max angular momentum in pseudopotentials (lmaxx) =  4
     Message from routine setup:
     using ibrav=0 with symmetry is DISCOURAGED, use correct ibrav instead
 
     R & G space division:  proc/nbgrp/npool/nimage =      24
     Subspace diagonalization in iterative solution of the eigenvalue problem:
     a serial algorithm will be used

 
     Parallelization info
     --------------------
     sticks:   dense  smooth     PW     G-vecs:    dense   smooth      PW
     Min         148     148     40                 6449     6449     914
     Max         149     149     42                 6453     6453     916
     Sum        3571    3571    973               154841   154841   21969
 
     Using Slab Decomposition
 


     bravais-lattice index     =            0
     lattice parameter (alat)  =       8.7471  a.u.
     unit-cell volume          =     871.4171 (a.u.)^3
     number of atoms/cell      =           12
     number of atomic types    =            4
     number of electrons       =       109.00
     number of Kohn-Sham states=           66
     kinetic-energy cutoff     =     120.0000  Ry
     charge density cutoff     =     480.0000  Ry
     scf convergence threshold =      1.0E-09
     mixing beta               =       0.7000
     number of iterations used =            8  local-TF  mixing
     Exchange-correlation= PBESOL
                           (   1   4  10   8   0   0   0)
     Hubbard projectors: ortho-atomic
     Hubbard parameters of DFT+U (Dudarev formulation) in eV:
     U(Mn-3d) =  4.6500
     U(Ni-3d) =  8.5500

     Internal variables: lda_plus_u = T, lda_plus_u_kind = 0

     celldm(1)=   8.747073  celldm(2)=   0.000000  celldm(3)=   0.000000
     celldm(4)=   0.000000  celldm(5)=   0.000000  celldm(6)=   0.000000

     crystal axes: (cart. coord. in units of alat)
               a(1) = (   0.999998   0.000000   0.001825 )  
               a(2) = (   0.000000   1.219799   0.000000 )  
               a(3) = (  -0.008436   0.000000   1.067441 )  

     reciprocal axes: (cart. coord. in units 2 pi/alat)
               b(1) = (  0.999987  0.000000  0.007903 )  
               b(2) = (  0.000000  0.819807  0.000000 )  
               b(3) = ( -0.001710  0.000000  0.936807 )  


     PseudoPot. # 1 for Mn read from file:
     pseudo_dojo_pbesol/Mn.upf
     MD5 check sum: ef44e22c4884c1dd3870421f9f7ffd72
     Pseudo is Norm-conserving + core correction, Zval = 15.0
     Generated using ONCVPSP code by D. R. Hamann
     Using radial grid of 1448 points,  6 beta functions with: 
                l(1) =   0
                l(2) =   0
                l(3) =   1
                l(4) =   1
                l(5) =   2
                l(6) =   2

     PseudoPot. # 2 for Ni read from file:
     pseudo_dojo_pbesol/Ni.upf
     MD5 check sum: 3ec56ad6bf78c9cc1bbec815420e1c7d
     Pseudo is Norm-conserving + core correction, Zval = 18.0
     Generated using ONCVPSP code by D. R. Hamann
     Using radial grid of 1356 points,  6 beta functions with: 
                l(1) =   0
                l(2) =   0
                l(3) =   1
                l(4) =   1
                l(5) =   2
                l(6) =   2

     PseudoPot. # 3 for W  read from file:
     pseudo_dojo_pbesol/W.upf
     MD5 check sum: b5ac44390825a9169ccdba7091ec60d0
     Pseudo is Norm-conserving + core correction, Zval = 14.0
     Generated using ONCVPSP code by D. R. Hamann
     Using radial grid of 1396 points,  8 beta functions with: 
                l(1) =   0
                l(2) =   0
                l(3) =   1
                l(4) =   1
                l(5) =   2
                l(6) =   2
                l(7) =   3
                l(8) =   3

     PseudoPot. # 4 for O  read from file:
     pseudo_dojo_pbesol/O.upf
     MD5 check sum: f226cbcd508cec715ff87a8f75a1dfba
     Pseudo is Norm-conserving + core correction, Zval =  6.0
     Generated using ONCVPSP code by D. R. Hamann
     Using radial grid of  936 points,  5 beta functions with: 
                l(1) =   0
                l(2) =   0
                l(3) =   1
                l(4) =   1
                l(5) =   2

     atomic species   valence    mass     pseudopotential
     Mn               15.00    54.93805     Mn( 1.00)
     Ni               18.00    58.69340     Ni( 1.00)
     W                14.00   183.84000     W ( 1.00)
     O                 6.00    15.99940     O ( 1.00)

     Starting magnetic structure 
     atomic species   magnetization
     Mn              0.200
     Ni              0.200
     W               0.000
     O               0.000

      2 Sym. Ops. (no inversion) found ( 1 have fractional translation)


                                    s                        frac. trans.

      isym =  1     identity                                     

 cryst.   s( 1) = (     1          0          0      )
                  (     0          1          0      )
                  (     0          0          1      )

 cart.    s( 1) = (  1.0000000  0.0000000  0.0000000 )
                  (  0.0000000  1.0000000  0.0000000 )
                  ( -0.0000000  0.0000000  1.0000000 )


      isym =  2     180 deg rotation - cart. axis [0,1,0]        

 cryst.   s( 2) = (    -1          0          0      )    f =(  0.0000000 )
                  (     0          1          0      )       (  0.0000000 )
                  (     0          0         -1      )       (  0.5000000 )

 cart.    s( 2) = ( -1.0000000  0.0000000 -0.0000000 )    f =( -0.0042179 )
                  (  0.0000000  1.0000000  0.0000000 )       (  0.0000000 )
                  (  0.0000000  0.0000000 -1.0000000 )       (  0.5337204 )


   Cartesian axes

     site n.     atom                  positions (alat units)
         1        Mn     tau(   1) = (   0.4936722   0.8205391   0.8014933  )
         2        Ni     tau(   2) = (   0.4978902   0.4095221   0.2677729  )
         3        W      tau(   3) = (  -0.0063269   0.2192650   0.8005806  )
         4        W      tau(   4) = (  -0.0021090   1.0036817   0.2668602  )
         5        O      tau(   5) = (   0.2482816   0.4561517   0.9680881  )
         6        O      tau(   6) = (   0.7390629   0.4561517   0.6348985  )
         7        O      tau(   7) = (   0.7444813   0.7535227   0.1163054  )
         8        O      tau(   8) = (   0.2512990   0.7535227   0.4192404  )
         9        O      tau(   9) = (   0.2047302   1.0948637   0.9999154  )
        10        O      tau(  10) = (   0.7826143   1.0948637   0.6030711  )
        11        O      tau(  11) = (   0.7759444   0.1283563   0.0689991  )
        12        O      tau(  12) = (   0.2198360   0.1283563   0.4665467  )

   Crystallographic axes

     site n.     atom                  positions (cryst. coord.)
         1        Mn     tau(   1) = (  0.5000000  0.6726836  0.7500000  )
         2        Ni     tau(   2) = (  0.5000000  0.3357290  0.2500000  )
         3        W      tau(   3) = (  0.0000000  0.1797550  0.7500000  )
         4        W      tau(   4) = (  0.0000000  0.8228252  0.2500000  )
         5        O      tau(   5) = (  0.2559290  0.3739563  0.9064868  )
         6        O      tau(   6) = (  0.7440710  0.3739563  0.5935132  )
         7        O      tau(   7) = (  0.7453910  0.6177431  0.1076826  )
         8        O      tau(   8) = (  0.2546090  0.6177431  0.3923174  )
         9        O      tau(   9) = (  0.2126297  0.8975768  0.9363773  )
        10        O      tau(  10) = (  0.7873703  0.8975768  0.5636227  )
        11        O      tau(  11) = (  0.7764797  0.1052274  0.0633119  )
        12        O      tau(  12) = (  0.2235203  0.1052274  0.4366881  )

     number of k points=    54  Marzari-Vanderbilt smearing, width (Ry)=  0.0200
                       cart. coord. in units 2pi/alat
        k(    1) = (   0.0831898   0.0683172   0.0787258), wk =   0.0185185
        k(    2) = (   0.0829047   0.0683172   0.2348602), wk =   0.0185185
        k(    3) = (   0.0826197   0.0683172   0.3909947), wk =   0.0185185
        k(    4) = (   0.0840448   0.0683172  -0.3896775), wk =   0.0185185
        k(    5) = (   0.0837598   0.0683172  -0.2335431), wk =   0.0185185
        k(    6) = (   0.0834748   0.0683172  -0.0774087), wk =   0.0185185
        k(    7) = (   0.0831898   0.2049517   0.0787258), wk =   0.0185185
        k(    8) = (   0.0829047   0.2049517   0.2348602), wk =   0.0185185
        k(    9) = (   0.0826197   0.2049517   0.3909947), wk =   0.0185185
        k(   10) = (   0.0840448   0.2049517  -0.3896775), wk =   0.0185185
        k(   11) = (   0.0837598   0.2049517  -0.2335431), wk =   0.0185185
        k(   12) = (   0.0834748   0.2049517  -0.0774087), wk =   0.0185185
        k(   13) = (   0.0831898   0.3415862   0.0787258), wk =   0.0185185
        k(   14) = (   0.0829047   0.3415862   0.2348602), wk =   0.0185185
        k(   15) = (   0.0826197   0.3415862   0.3909947), wk =   0.0185185
        k(   16) = (   0.0840448   0.3415862  -0.3896775), wk =   0.0185185
        k(   17) = (   0.0837598   0.3415862  -0.2335431), wk =   0.0185185
        k(   18) = (   0.0834748   0.3415862  -0.0774087), wk =   0.0185185
        k(   19) = (   0.2498543   0.0683172   0.0800429), wk =   0.0185185
        k(   20) = (   0.2495693   0.0683172   0.2361774), wk =   0.0185185
        k(   21) = (   0.2492843   0.0683172   0.3923118), wk =   0.0185185
        k(   22) = (   0.2507093   0.0683172  -0.3883604), wk =   0.0185185
        k(   23) = (   0.2504243   0.0683172  -0.2322260), wk =   0.0185185
        k(   24) = (   0.2501393   0.0683172  -0.0760915), wk =   0.0185185
        k(   25) = (   0.2498543   0.2049517   0.0800429), wk =   0.0185185
        k(   26) = (   0.2495693   0.2049517   0.2361774), wk =   0.0185185
        k(   27) = (   0.2492843   0.2049517   0.3923118), wk =   0.0185185
        k(   28) = (   0.2507093   0.2049517  -0.3883604), wk =   0.0185185
        k(   29) = (   0.2504243   0.2049517  -0.2322260), wk =   0.0185185
        k(   30) = (   0.2501393   0.2049517  -0.0760915), wk =   0.0185185
        k(   31) = (   0.2498543   0.3415862   0.0800429), wk =   0.0185185
        k(   32) = (   0.2495693   0.3415862   0.2361774), wk =   0.0185185
        k(   33) = (   0.2492843   0.3415862   0.3923118), wk =   0.0185185
        k(   34) = (   0.2507093   0.3415862  -0.3883604), wk =   0.0185185
        k(   35) = (   0.2504243   0.3415862  -0.2322260), wk =   0.0185185
        k(   36) = (   0.2501393   0.3415862  -0.0760915), wk =   0.0185185
        k(   37) = (   0.4165188   0.0683172   0.0813601), wk =   0.0185185
        k(   38) = (   0.4162338   0.0683172   0.2374945), wk =   0.0185185
        k(   39) = (   0.4159488   0.0683172   0.3936289), wk =   0.0185185
        k(   40) = (   0.4173739   0.0683172  -0.3870433), wk =   0.0185185
        k(   41) = (   0.4170889   0.0683172  -0.2309088), wk =   0.0185185
        k(   42) = (   0.4168039   0.0683172  -0.0747744), wk =   0.0185185
        k(   43) = (   0.4165188   0.2049517   0.0813601), wk =   0.0185185
        k(   44) = (   0.4162338   0.2049517   0.2374945), wk =   0.0185185
        k(   45) = (   0.4159488   0.2049517   0.3936289), wk =   0.0185185
        k(   46) = (   0.4173739   0.2049517  -0.3870433), wk =   0.0185185
        k(   47) = (   0.4170889   0.2049517  -0.2309088), wk =   0.0185185
        k(   48) = (   0.4168039   0.2049517  -0.0747744), wk =   0.0185185
        k(   49) = (   0.4165188   0.3415862   0.0813601), wk =   0.0185185
        k(   50) = (   0.4162338   0.3415862   0.2374945), wk =   0.0185185
        k(   51) = (   0.4159488   0.3415862   0.3936289), wk =   0.0185185
        k(   52) = (   0.4173739   0.3415862  -0.3870433), wk =   0.0185185
        k(   53) = (   0.4170889   0.3415862  -0.2309088), wk =   0.0185185
        k(   54) = (   0.4168039   0.3415862  -0.0747744), wk =   0.0185185

                       cryst. coord.
        k(    1) = (   0.0833333   0.0833333   0.0833333), wk =   0.0185185
        k(    2) = (   0.0833333   0.0833333   0.2500000), wk =   0.0185185
        k(    3) = (   0.0833333   0.0833333   0.4166667), wk =   0.0185185
        k(    4) = (   0.0833333   0.0833333  -0.4166667), wk =   0.0185185
        k(    5) = (   0.0833333   0.0833333  -0.2500000), wk =   0.0185185
        k(    6) = (   0.0833333   0.0833333  -0.0833333), wk =   0.0185185
        k(    7) = (   0.0833333   0.2500000   0.0833333), wk =   0.0185185
        k(    8) = (   0.0833333   0.2500000   0.2500000), wk =   0.0185185
        k(    9) = (   0.0833333   0.2500000   0.4166667), wk =   0.0185185
        k(   10) = (   0.0833333   0.2500000  -0.4166667), wk =   0.0185185
        k(   11) = (   0.0833333   0.2500000  -0.2500000), wk =   0.0185185
        k(   12) = (   0.0833333   0.2500000  -0.0833333), wk =   0.0185185
        k(   13) = (   0.0833333   0.4166667   0.0833333), wk =   0.0185185
        k(   14) = (   0.0833333   0.4166667   0.2500000), wk =   0.0185185
        k(   15) = (   0.0833333   0.4166667   0.4166667), wk =   0.0185185
        k(   16) = (   0.0833333   0.4166667  -0.4166667), wk =   0.0185185
        k(   17) = (   0.0833333   0.4166667  -0.2500000), wk =   0.0185185
        k(   18) = (   0.0833333   0.4166667  -0.0833333), wk =   0.0185185
        k(   19) = (   0.2500000   0.0833333   0.0833333), wk =   0.0185185
        k(   20) = (   0.2500000   0.0833333   0.2500000), wk =   0.0185185
        k(   21) = (   0.2500000   0.0833333   0.4166667), wk =   0.0185185
        k(   22) = (   0.2500000   0.0833333  -0.4166667), wk =   0.0185185
        k(   23) = (   0.2500000   0.0833333  -0.2500000), wk =   0.0185185
        k(   24) = (   0.2500000   0.0833333  -0.0833333), wk =   0.0185185
        k(   25) = (   0.2500000   0.2500000   0.0833333), wk =   0.0185185
        k(   26) = (   0.2500000   0.2500000   0.2500000), wk =   0.0185185
        k(   27) = (   0.2500000   0.2500000   0.4166667), wk =   0.0185185
        k(   28) = (   0.2500000   0.2500000  -0.4166667), wk =   0.0185185
        k(   29) = (   0.2500000   0.2500000  -0.2500000), wk =   0.0185185
        k(   30) = (   0.2500000   0.2500000  -0.0833333), wk =   0.0185185
        k(   31) = (   0.2500000   0.4166667   0.0833333), wk =   0.0185185
        k(   32) = (   0.2500000   0.4166667   0.2500000), wk =   0.0185185
        k(   33) = (   0.2500000   0.4166667   0.4166667), wk =   0.0185185
        k(   34) = (   0.2500000   0.4166667  -0.4166667), wk =   0.0185185
        k(   35) = (   0.2500000   0.4166667  -0.2500000), wk =   0.0185185
        k(   36) = (   0.2500000   0.4166667  -0.0833333), wk =   0.0185185
        k(   37) = (   0.4166667   0.0833333   0.0833333), wk =   0.0185185
        k(   38) = (   0.4166667   0.0833333   0.2500000), wk =   0.0185185
        k(   39) = (   0.4166667   0.0833333   0.4166667), wk =   0.0185185
        k(   40) = (   0.4166667   0.0833333  -0.4166667), wk =   0.0185185
        k(   41) = (   0.4166667   0.0833333  -0.2500000), wk =   0.0185185
        k(   42) = (   0.4166667   0.0833333  -0.0833333), wk =   0.0185185
        k(   43) = (   0.4166667   0.2500000   0.0833333), wk =   0.0185185
        k(   44) = (   0.4166667   0.2500000   0.2500000), wk =   0.0185185
        k(   45) = (   0.4166667   0.2500000   0.4166667), wk =   0.0185185
        k(   46) = (   0.4166667   0.2500000  -0.4166667), wk =   0.0185185
        k(   47) = (   0.4166667   0.2500000  -0.2500000), wk =   0.0185185
        k(   48) = (   0.4166667   0.2500000  -0.0833333), wk =   0.0185185
        k(   49) = (   0.4166667   0.4166667   0.0833333), wk =   0.0185185
        k(   50) = (   0.4166667   0.4166667   0.2500000), wk =   0.0185185
        k(   51) = (   0.4166667   0.4166667   0.4166667), wk =   0.0185185
        k(   52) = (   0.4166667   0.4166667  -0.4166667), wk =   0.0185185
        k(   53) = (   0.4166667   0.4166667  -0.2500000), wk =   0.0185185
        k(   54) = (   0.4166667   0.4166667  -0.0833333), wk =   0.0185185

     Dense  grid:   154841 G-vectors     FFT dimensions: (  64,  75,  72)

     Dynamical RAM for                 wfc:       0.81 MB

     Dynamical RAM for     wfc (w. buffer):      88.48 MB

     Dynamical RAM for             U proj.:       0.12 MB

     Dynamical RAM for  U proj. (w. buff.):      13.41 MB

     Dynamical RAM for           str. fact:       0.39 MB

     Dynamical RAM for           local pot:       0.00 MB

     Dynamical RAM for          nlocal pot:       2.51 MB

     Dynamical RAM for                qrad:      16.87 MB

     Dynamical RAM for          rho,v,vnew:       1.25 MB

     Dynamical RAM for               rhoin:       0.42 MB

     Dynamical RAM for            rho*nmix:       3.15 MB

     Dynamical RAM for           G-vectors:       0.42 MB

     Dynamical RAM for          h,s,v(r/c):       0.80 MB

     Dynamical RAM for          <psi|beta>:       0.21 MB

     Dynamical RAM for                 psi:       1.62 MB

     Dynamical RAM for                hpsi:       1.62 MB

     Dynamical RAM for      wfcinit/wfcrot:       1.72 MB

     Estimated static dynamical RAM per process >     124.89 MB

     Estimated max dynamical RAM per process >     132.29 MB

     Estimated total dynamical RAM >       3.10 GB
     Generating pointlists ...
     new r_m :   0.1836 (alat units)  1.6060 (a.u.) for type    1
     new r_m :   0.1822 (alat units)  1.5938 (a.u.) for type    2
     new r_m :   0.1592 (alat units)  1.3928 (a.u.) for type    3
     new r_m :   0.1592 (alat units)  1.3928 (a.u.) for type    4

     Initial potential from superposition of free atoms

     starting charge     108.9983, renormalised to     109.0000

     HUBBARD ENERGY =    0.3770  (Ry)

     STARTING HUBBARD OCCUPATIONS:

     =================== HUBBARD OCCUPATIONS ===================
     ------------------------ ATOM    1 ------------------------
     Tr[ns(  1)] (up, down, total) =   5.00000  0.00000  5.00000
     Atomic magnetic moment for atom   1 =   5.00000
     SPIN  1
     eigenvalues:
       1.000  1.000  1.000  1.000  1.000
     eigenvectors (columns):
       1.000  0.000  0.000  0.000  0.000
       0.000  1.000  0.000  0.000  0.000
       0.000  0.000  1.000  0.000  0.000
       0.000  0.000  0.000  1.000  0.000
       0.000  0.000  0.000  0.000  1.000
     occupation matrix ns (before diag.):
       1.000  0.000  0.000  0.000  0.000
       0.000  1.000  0.000  0.000  0.000
       0.000  0.000  1.000  0.000  0.000
       0.000  0.000  0.000  1.000  0.000
       0.000  0.000  0.000  0.000  1.000
     SPIN  2
     eigenvalues:
       0.000  0.000  0.000  0.000  0.000
     eigenvectors (columns):
       1.000  0.000  0.000  0.000  0.000
       0.000  1.000  0.000  0.000  0.000
       0.000  0.000  1.000  0.000  0.000
       0.000  0.000  0.000  1.000  0.000
       0.000  0.000  0.000  0.000  1.000
     occupation matrix ns (before diag.):
       0.000  0.000  0.000  0.000  0.000
       0.000  0.000  0.000  0.000  0.000
       0.000  0.000  0.000  0.000  0.000
       0.000  0.000  0.000  0.000  0.000
       0.000  0.000  0.000  0.000  0.000
     ------------------------ ATOM    2 ------------------------
     Tr[ns(  2)] (up, down, total) =   5.00000  3.00000  8.00000
     Atomic magnetic moment for atom   2 =   2.00000
     SPIN  1
     eigenvalues:
       1.000  1.000  1.000  1.000  1.000
     eigenvectors (columns):
       1.000  0.000  0.000  0.000  0.000
       0.000  1.000  0.000  0.000  0.000
       0.000  0.000  1.000  0.000  0.000
       0.000  0.000  0.000  1.000  0.000
       0.000  0.000  0.000  0.000  1.000
     occupation matrix ns (before diag.):
       1.000  0.000  0.000  0.000  0.000
       0.000  1.000  0.000  0.000  0.000
       0.000  0.000  1.000  0.000  0.000
       0.000  0.000  0.000  1.000  0.000
       0.000  0.000  0.000  0.000  1.000
     SPIN  2
     eigenvalues:
       0.600  0.600  0.600  0.600  0.600
     eigenvectors (columns):
       1.000  0.000  0.000  0.000  0.000
       0.000  1.000  0.000  0.000  0.000
       0.000  0.000  1.000  0.000  0.000
       0.000  0.000  0.000  1.000  0.000
       0.000  0.000  0.000  0.000  1.000
     occupation matrix ns (before diag.):
       0.600  0.000  0.000  0.000  0.000
       0.000  0.600  0.000  0.000  0.000
       0.000  0.000  0.600  0.000  0.000
       0.000  0.000  0.000  0.600  0.000
       0.000  0.000  0.000  0.000  0.600

     Number of occupied Hubbard levels =   13.0000

     Atomic wfc used for Hubbard projectors are orthogonalized

     Starting wfcs are   72 randomized atomic wfcs

     total cpu time spent up to now is        4.3 secs

     per-process dynamical memory:   175.8 Mb

     Self-consistent Calculation

     iteration #  1     ecut=   120.00 Ry     beta= 0.70
     Davidson diagonalization with overlap

---- Real-time Memory Report at c_bands before calling an iterative solver
           209 MiB given to the printing process from OS
           171 MiB allocation reported by mallinfo(arena+hblkhd)
        665013 MiB available memory on the node where the printing process lives
------------------
     ethr =  1.00E-02,  avg # of iterations =  2.2
     Minimization algorithm failed to find Fermi energy: reverting to bisection
     Possible cause: smearing is larger than the electronic band-gap.

     =================== HUBBARD OCCUPATIONS ===================
     ------------------------ ATOM    1 ------------------------
     Tr[ns(  1)] (up, down, total) =   4.97547  0.21553  5.19100
     Atomic magnetic moment for atom   1 =   4.75994
     SPIN  1
     eigenvalues:
       0.991  0.994  0.996  0.997  0.997
     eigenvectors (columns):
      -0.000 -0.812 -0.000 -0.420  0.405
      -0.000  0.514 -0.000 -0.843  0.157
       0.560 -0.000 -0.828  0.000 -0.000
       0.000 -0.276 -0.000 -0.335 -0.901
       0.828  0.000  0.560 -0.000  0.000
     occupation matrix ns (before diag.):
       0.995  0.001 -0.000 -0.001  0.000
       0.001  0.996 -0.000  0.000  0.000
      -0.000 -0.000  0.995 -0.000 -0.003
      -0.001  0.000 -0.000  0.997 -0.000
       0.000  0.000 -0.003 -0.000  0.993
     SPIN  2
     eigenvalues:
       0.021  0.021  0.024  0.074  0.075
     eigenvectors (columns):
      -0.842  0.000  0.062  0.000  0.536
      -0.500  0.000  0.284 -0.000 -0.818
      -0.000 -0.830  0.000  0.558 -0.000
       0.203 -0.000  0.957 -0.000  0.209
       0.000  0.558  0.000  0.830 -0.000
     occupation matrix ns (before diag.):
       0.037 -0.024  0.000  0.006  0.000
      -0.024  0.057 -0.000 -0.009  0.000
       0.000 -0.000  0.038 -0.000  0.024
       0.006 -0.009 -0.000  0.026 -0.000
       0.000  0.000  0.024 -0.000  0.058
     ------------------------ ATOM    2 ------------------------
     Tr[ns(  2)] (up, down, total) =   4.98960  3.29705  8.28664
     Atomic magnetic moment for atom   2 =   1.69255
     SPIN  1
     eigenvalues:
       0.996  0.996  0.999  0.999  0.999
     eigenvectors (columns):
      -0.583 -0.000 -0.711  0.000  0.393
       0.765  0.000 -0.643  0.000 -0.029
      -0.000  0.544 -0.000 -0.839 -0.000
      -0.273 -0.000 -0.284  0.000 -0.919
      -0.000  0.839  0.000  0.544  0.000
     occupation matrix ns (before diag.):
       0.998  0.001 -0.000 -0.001  0.000
       0.001  0.997 -0.000  0.001  0.000
      -0.000 -0.000  0.998 -0.000 -0.001
      -0.001  0.001 -0.000  0.999 -0.000
       0.000  0.000 -0.001 -0.000  0.997
     SPIN  2
     eigenvalues:
       0.170  0.173  0.929  1.012  1.013
     eigenvectors (columns):
       0.000  0.533  0.088  0.842  0.000
      -0.000 -0.810 -0.237  0.537  0.000
       0.550 -0.000  0.000  0.000 -0.835
       0.000  0.247 -0.967 -0.055 -0.000
       0.835 -0.000 -0.000 -0.000  0.550
     occupation matrix ns (before diag.):
       0.773  0.363 -0.000 -0.103  0.000
       0.363  0.458 -0.000  0.149  0.000
      -0.000 -0.000  0.758  0.000 -0.388
      -0.103  0.149  0.000  0.883 -0.000
       0.000  0.000 -0.388 -0.000  0.425

     Number of occupied Hubbard levels =   13.4776

     HUBBARD ENERGY =    0.1443  (Ry)

     total cpu time spent up to now is       15.2 secs

     total energy              =   -1119.30832496 Ry
     estimated scf accuracy    <       4.31709501 Ry

     total magnetization       =     7.03 Bohr mag/cell
     absolute magnetization    =     7.06 Bohr mag/cell

     iteration #  2     ecut=   120.00 Ry     beta= 0.70
     Davidson diagonalization with overlap

---- Real-time Memory Report at c_bands before calling an iterative solver
           216 MiB given to the printing process from OS
           176 MiB allocation reported by mallinfo(arena+hblkhd)
        664373 MiB available memory on the node where the printing process lives
------------------
     ethr =  3.96E-03,  avg # of iterations =  2.0

     =================== HUBBARD OCCUPATIONS ===================
     ------------------------ ATOM    1 ------------------------
     Tr[ns(  1)] (up, down, total) =   4.93441  0.27926  5.21367
     Atomic magnetic moment for atom   1 =   4.65515
     SPIN  1
     eigenvalues:
       0.974  0.975  0.995  0.995  0.995
     eigenvectors (columns):
       0.000  0.593  0.802  0.000  0.073
      -0.000 -0.771  0.592  0.000 -0.235
       0.533 -0.000  0.000 -0.846 -0.000
       0.000  0.231 -0.083  0.000 -0.969
       0.846 -0.000 -0.000  0.533  0.000
     occupation matrix ns (before diag.):
       0.988  0.009 -0.000 -0.003  0.000
       0.009  0.983 -0.000  0.004  0.000
      -0.000 -0.000  0.989 -0.000 -0.009
      -0.003  0.004 -0.000  0.994 -0.000
       0.000  0.000 -0.009 -0.000  0.980
     SPIN  2
     eigenvalues:
       0.027  0.027  0.033  0.096  0.097
     eigenvectors (columns):
      -0.000  0.845  0.024  0.000  0.534
      -0.000  0.524 -0.233 -0.000 -0.819
      -0.830 -0.000 -0.000  0.558 -0.000
       0.000 -0.104 -0.972 -0.000  0.209
       0.558  0.000 -0.000  0.830 -0.000
     occupation matrix ns (before diag.):
       0.047 -0.030  0.000  0.008  0.000
      -0.030  0.074 -0.000 -0.011  0.000
       0.000 -0.000  0.048 -0.000  0.032
       0.008 -0.011 -0.000  0.036 -0.000
       0.000  0.000  0.032 -0.000  0.074
     ------------------------ ATOM    2 ------------------------
     Tr[ns(  2)] (up, down, total) =   4.98006  3.20914  8.18920
     Atomic magnetic moment for atom   2 =   1.77092
     SPIN  1
     eigenvalues:
       0.993  0.993  0.998  0.998  0.998
     eigenvectors (columns):
      -0.574 -0.000  0.815  0.000 -0.085
       0.770  0.000  0.572  0.000  0.284
      -0.000  0.498  0.000 -0.867  0.000
      -0.279  0.000 -0.097  0.000  0.955
      -0.000  0.867 -0.000  0.498 -0.000
     occupation matrix ns (before diag.):
       0.996  0.002 -0.000 -0.001  0.000
       0.002  0.995 -0.000  0.001  0.000
      -0.000 -0.000  0.997 -0.000 -0.002
      -0.001  0.001 -0.000  0.998 -0.000
       0.000  0.000 -0.002 -0.000  0.994
     SPIN  2
     eigenvalues:
       0.110  0.115  0.994  0.995  0.995
     eigenvectors (columns):
       0.000 -0.534 -0.821 -0.201  0.000
      -0.000  0.808 -0.426 -0.407  0.000
       0.552  0.000 -0.000  0.000 -0.834
       0.000 -0.249  0.380 -0.891 -0.000
       0.834  0.000  0.000 -0.000  0.552
     occupation matrix ns (before diag.):
       0.743  0.380 -0.000 -0.117  0.000
       0.380  0.420 -0.000  0.177  0.000
      -0.000 -0.000  0.725  0.000 -0.407
      -0.117  0.177  0.000  0.940 -0.000
       0.000  0.000 -0.407 -0.000  0.380

     Number of occupied Hubbard levels =   13.4029

     HUBBARD ENERGY =    0.1344  (Ry)

     total cpu time spent up to now is       25.5 secs

     total energy              =   -1120.09673513 Ry
     estimated scf accuracy    <       0.11810619 Ry

     total magnetization       =     7.00 Bohr mag/cell
     absolute magnetization    =     7.02 Bohr mag/cell

     iteration #  3     ecut=   120.00 Ry     beta= 0.70
     Davidson diagonalization with overlap

---- Real-time Memory Report at c_bands before calling an iterative solver
           218 MiB given to the printing process from OS
           177 MiB allocation reported by mallinfo(arena+hblkhd)
        664143 MiB available memory on the node where the printing process lives
------------------
     c_bands:  2 eigenvalues not converged
     c_bands:  1 eigenvalues not converged
     ethr =  1.08E-04,  avg # of iterations =  8.1

     =================== HUBBARD OCCUPATIONS ===================
     ------------------------ ATOM    1 ------------------------
     Tr[ns(  1)] (up, down, total) =   4.93051  0.26339  5.19390
     Atomic magnetic moment for atom   1 =   4.66712
     SPIN  1
     eigenvalues:
       0.973  0.973  0.995  0.995  0.995
     eigenvectors (columns):
       0.000  0.593  0.797  0.000  0.114
      -0.000 -0.772  0.603  0.000 -0.200
       0.537 -0.000  0.000 -0.844 -0.000
       0.000  0.228 -0.030  0.000 -0.973
       0.844 -0.000 -0.000  0.537  0.000
     occupation matrix ns (before diag.):
       0.987  0.010 -0.000 -0.003  0.000
       0.010  0.982 -0.000  0.004  0.000
      -0.000 -0.000  0.988 -0.000 -0.010
      -0.003  0.004 -0.000  0.994 -0.000
       0.000  0.000 -0.010 -0.000  0.979
     SPIN  2
     eigenvalues:
       0.025  0.025  0.030  0.091  0.092
     eigenvectors (columns):
      -0.000  0.845 -0.005  0.000  0.534
      -0.000  0.516 -0.249 -0.000 -0.819
      -0.828 -0.000 -0.000  0.560 -0.000
       0.000 -0.137 -0.968 -0.000  0.208
       0.560  0.000 -0.000  0.828 -0.000
     occupation matrix ns (before diag.):
       0.044 -0.029  0.000  0.007  0.000
      -0.029  0.070 -0.000 -0.010  0.000
       0.000 -0.000  0.046 -0.000  0.031
       0.007 -0.010 -0.000  0.033 -0.000
       0.000  0.000  0.031 -0.000  0.070
     ------------------------ ATOM    2 ------------------------
     Tr[ns(  2)] (up, down, total) =   4.97906  3.19174  8.17080
     Atomic magnetic moment for atom   2 =   1.78732
     SPIN  1
     eigenvalues:
       0.993  0.993  0.998  0.998  0.998
     eigenvectors (columns):
      -0.580 -0.000 -0.806  0.000  0.120
       0.766  0.000 -0.590  0.000 -0.256
      -0.000  0.506 -0.000 -0.863 -0.000
      -0.277  0.000  0.056  0.000 -0.959
      -0.000  0.863  0.000  0.506  0.000
     occupation matrix ns (before diag.):
       0.996  0.002 -0.000 -0.001  0.000
       0.002  0.995 -0.000  0.001  0.000
      -0.000 -0.000  0.997 -0.000 -0.002
      -0.001  0.001 -0.000  0.998 -0.000
       0.000  0.000 -0.002 -0.000  0.994
     SPIN  2
     eigenvalues:
       0.101  0.105  0.995  0.995  0.996
     eigenvectors (columns):
       0.000  0.535  0.845  0.000  0.002
      -0.000 -0.807  0.512  0.000 -0.294
       0.553 -0.000  0.000 -0.833 -0.000
       0.000  0.250 -0.155  0.000 -0.956
       0.833 -0.000 -0.000  0.553  0.000
     occupation matrix ns (before diag.):
       0.741  0.384 -0.000 -0.119  0.000
       0.384  0.415 -0.000  0.180  0.000
      -0.000 -0.000  0.722  0.000 -0.412
      -0.119  0.180  0.000  0.940 -0.000
       0.000  0.000 -0.412 -0.000  0.374

     Number of occupied Hubbard levels =   13.3647

     HUBBARD ENERGY =    0.1225  (Ry)

     total cpu time spent up to now is       40.7 secs

     total energy              =   -1120.11979656 Ry
     estimated scf accuracy    <       0.02722660 Ry

     total magnetization       =     7.00 Bohr mag/cell
     absolute magnetization    =     7.02 Bohr mag/cell

     iteration #  4     ecut=   120.00 Ry     beta= 0.70
     Davidson diagonalization with overlap

---- Real-time Memory Report at c_bands before calling an iterative solver
           218 MiB given to the printing process from OS
           177 MiB allocation reported by mallinfo(arena+hblkhd)
        664076 MiB available memory on the node where the printing process lives
------------------
     ethr =  2.50E-05,  avg # of iterations =  3.0

     =================== HUBBARD OCCUPATIONS ===================
     ------------------------ ATOM    1 ------------------------
     Tr[ns(  1)] (up, down, total) =   4.93305  0.25325  5.18630
     Atomic magnetic moment for atom   1 =   4.67980
     SPIN  1
     eigenvalues:
       0.974  0.974  0.995  0.995  0.996
     eigenvectors (columns):
       0.000  0.593  0.787  0.000  0.170
      -0.000 -0.772  0.616  0.000 -0.155
       0.539 -0.000  0.000 -0.843 -0.000
       0.000  0.227  0.039  0.000 -0.973
       0.843 -0.000 -0.000  0.539  0.000
     occupation matrix ns (before diag.):
       0.988  0.010 -0.000 -0.003  0.000
       0.010  0.982 -0.000  0.004  0.000
      -0.000 -0.000  0.989 -0.000 -0.010
      -0.003  0.004 -0.000  0.994 -0.000
       0.000  0.000 -0.010 -0.000  0.980
     SPIN  2
     eigenvalues:
       0.024  0.024  0.029  0.088  0.088
     eigenvectors (columns):
      -0.000  0.845 -0.022  0.000  0.535
      -0.000  0.512 -0.259 -0.000 -0.819
      -0.827 -0.000 -0.000  0.562 -0.000
       0.000 -0.156 -0.966 -0.000  0.207
       0.562  0.000 -0.000  0.827 -0.000
     occupation matrix ns (before diag.):
       0.043 -0.028  0.000  0.007  0.000
      -0.028  0.068 -0.000 -0.010  0.000
       0.000 -0.000  0.044 -0.000  0.030
       0.007 -0.010 -0.000  0.031 -0.000
       0.000  0.000  0.030 -0.000  0.068
     ------------------------ ATOM    2 ------------------------
     Tr[ns(  2)] (up, down, total) =   4.98030  3.18285  8.16315
     Atomic magnetic moment for atom   2 =   1.79745
     SPIN  1
     eigenvalues:
       0.993  0.993  0.998  0.998  0.998
     eigenvectors (columns):
      -0.580 -0.000  0.801  0.000 -0.149
       0.766  0.000  0.599  0.000  0.234
      -0.000  0.508  0.000 -0.862  0.000
      -0.277  0.000 -0.022  0.000  0.961
      -0.000  0.862 -0.000  0.508 -0.000
     occupation matrix ns (before diag.):
       0.996  0.002 -0.000 -0.001  0.000
       0.002  0.995 -0.000  0.001  0.000
      -0.000 -0.000  0.997 -0.000 -0.002
      -0.001  0.001 -0.000  0.998 -0.000
       0.000  0.000 -0.002 -0.000  0.995
     SPIN  2
     eigenvalues:
       0.096  0.100  0.996  0.996  0.996
     eigenvectors (columns):
       0.000 -0.535  0.843  0.000 -0.054
      -0.000  0.806  0.529  0.000  0.265
       0.553  0.000  0.000 -0.833  0.000
       0.000 -0.251 -0.098  0.000  0.963
       0.833  0.000 -0.000  0.553 -0.000
     occupation matrix ns (before diag.):
       0.739  0.387 -0.000 -0.121  0.000
       0.387  0.413 -0.000  0.182  0.000
      -0.000 -0.000  0.720  0.000 -0.415
      -0.121  0.182  0.000  0.940 -0.000
       0.000  0.000 -0.415 -0.000  0.371

     Number of occupied Hubbard levels =   13.3495

     HUBBARD ENERGY =    0.1163  (Ry)

     total cpu time spent up to now is       51.6 secs

     total energy              =   -1120.12246447 Ry
     estimated scf accuracy    <       0.00574192 Ry

     total magnetization       =     7.00 Bohr mag/cell
     absolute magnetization    =     7.03 Bohr mag/cell

     iteration #  5     ecut=   120.00 Ry     beta= 0.70
     Davidson diagonalization with overlap

---- Real-time Memory Report at c_bands before calling an iterative solver
           219 MiB given to the printing process from OS
           177 MiB allocation reported by mallinfo(arena+hblkhd)
        664033 MiB available memory on the node where the printing process lives
------------------
     ethr =  5.27E-06,  avg # of iterations =  4.0

     =================== HUBBARD OCCUPATIONS ===================
     ------------------------ ATOM    1 ------------------------
     Tr[ns(  1)] (up, down, total) =   4.93160  0.25448  5.18608
     Atomic magnetic moment for atom   1 =   4.67712
     SPIN  1
     eigenvalues:
       0.973  0.973  0.995  0.995  0.996
     eigenvectors (columns):
       0.000  0.593  0.792  0.000  0.144
      -0.000 -0.773  0.610  0.000 -0.176
       0.538 -0.000  0.000 -0.843 -0.000
       0.000  0.227  0.007  0.000 -0.974
       0.843 -0.000 -0.000  0.538  0.000
     occupation matrix ns (before diag.):
       0.987  0.010 -0.000 -0.003  0.000
       0.010  0.982 -0.000  0.004  0.000
      -0.000 -0.000  0.989 -0.000 -0.010
      -0.003  0.004 -0.000  0.994 -0.000
       0.000  0.000 -0.010 -0.000  0.979
     SPIN  2
     eigenvalues:
       0.024  0.024  0.029  0.088  0.089
     eigenvectors (columns):
      -0.000 -0.845  0.017  0.000  0.535
      -0.000 -0.513  0.256 -0.000 -0.819
      -0.827  0.000  0.000  0.562 -0.000
       0.000  0.151  0.967 -0.000  0.208
       0.562 -0.000  0.000  0.827 -0.000
     occupation matrix ns (before diag.):
       0.043 -0.028  0.000  0.007  0.000
      -0.028  0.068 -0.000 -0.010  0.000
       0.000 -0.000  0.044 -0.000  0.030
       0.007 -0.010 -0.000  0.032 -0.000
       0.000  0.000  0.030 -0.000  0.068
     ------------------------ ATOM    2 ------------------------
     Tr[ns(  2)] (up, down, total) =   4.98042  3.18641  8.16684
     Atomic magnetic moment for atom   2 =   1.79401
     SPIN  1
     eigenvalues:
       0.993  0.993  0.998  0.998  0.998
     eigenvectors (columns):
      -0.579 -0.000 -0.804  0.000  0.131
       0.767  0.000 -0.593  0.000 -0.247
      -0.000  0.507 -0.000 -0.862 -0.000
      -0.276  0.000  0.042  0.000 -0.960
      -0.000  0.862  0.000  0.507  0.000
     occupation matrix ns (before diag.):
       0.996  0.002 -0.000 -0.001  0.000
       0.002  0.995 -0.000  0.001  0.000
      -0.000 -0.000  0.997 -0.000 -0.002
      -0.001  0.001 -0.000  0.998 -0.000
       0.000  0.000 -0.002 -0.000  0.995
     SPIN  2
     eigenvalues:
       0.097  0.101  0.996  0.996  0.997
     eigenvectors (columns):
       0.000  0.535  0.844  0.000  0.041
      -0.000 -0.806  0.525  0.000 -0.274
       0.554 -0.000  0.000 -0.833 -0.000
       0.000  0.253 -0.114 -0.000 -0.961
       0.833 -0.000 -0.000  0.554  0.000
     occupation matrix ns (before diag.):
       0.739  0.386 -0.000 -0.121  0.000
       0.386  0.415 -0.000  0.182  0.000
      -0.000 -0.000  0.720  0.000 -0.415
      -0.121  0.182  0.000  0.939 -0.000
       0.000  0.000 -0.415 -0.000  0.373

     Number of occupied Hubbard levels =   13.3529

     HUBBARD ENERGY =    0.1174  (Ry)

     total cpu time spent up to now is       62.4 secs

     total energy              =   -1120.12339475 Ry
     estimated scf accuracy    <       0.00051637 Ry

     total magnetization       =     7.00 Bohr mag/cell
     absolute magnetization    =     7.03 Bohr mag/cell

     iteration #  6     ecut=   120.00 Ry     beta= 0.70
     Davidson diagonalization with overlap

---- Real-time Memory Report at c_bands before calling an iterative solver
           220 MiB given to the printing process from OS
           178 MiB allocation reported by mallinfo(arena+hblkhd)
        664006 MiB available memory on the node where the printing process lives
------------------
     ethr =  4.74E-07,  avg # of iterations =  2.6

     =================== HUBBARD OCCUPATIONS ===================
     ------------------------ ATOM    1 ------------------------
     Tr[ns(  1)] (up, down, total) =   4.93202  0.25577  5.18779
     Atomic magnetic moment for atom   1 =   4.67625
     SPIN  1
     eigenvalues:
       0.973  0.974  0.995  0.995  0.996
     eigenvectors (columns):
       0.000  0.593  0.792  0.000  0.145
      -0.000 -0.773  0.610  0.000 -0.174
       0.539 -0.000  0.000 -0.843 -0.000
       0.000  0.227  0.009  0.000 -0.974
       0.843 -0.000 -0.000  0.539  0.000
     occupation matrix ns (before diag.):
       0.987  0.010 -0.000 -0.003  0.000
       0.010  0.982 -0.000  0.004  0.000
      -0.000 -0.000  0.989 -0.000 -0.010
      -0.003  0.004 -0.000  0.994 -0.000
       0.000  0.000 -0.010 -0.000  0.979
     SPIN  2
     eigenvalues:
       0.024  0.024  0.029  0.089  0.089
     eigenvectors (columns):
      -0.000 -0.845  0.017  0.000  0.534
      -0.000 -0.513  0.256 -0.000 -0.819
      -0.827  0.000  0.000  0.562 -0.000
       0.000  0.151  0.967 -0.000  0.207
       0.562 -0.000  0.000  0.827 -0.000
     occupation matrix ns (before diag.):
       0.043 -0.028  0.000  0.007  0.000
      -0.028  0.068 -0.000 -0.010  0.000
       0.000 -0.000  0.045 -0.000  0.030
       0.007 -0.010 -0.000  0.032 -0.000
       0.000  0.000  0.030 -0.000  0.068
     ------------------------ ATOM    2 ------------------------
     Tr[ns(  2)] (up, down, total) =   4.98067  3.19016  8.17083
     Atomic magnetic moment for atom   2 =   1.79050
     SPIN  1
     eigenvalues:
       0.993  0.994  0.998  0.998  0.998
     eigenvectors (columns):
      -0.579 -0.000 -0.805  0.000  0.131
       0.767  0.000 -0.592  0.000 -0.246
      -0.000  0.508 -0.000 -0.861 -0.000
      -0.275  0.000  0.042  0.000 -0.960
      -0.000  0.861  0.000  0.508  0.000
     occupation matrix ns (before diag.):
       0.996  0.002 -0.000 -0.001  0.000
       0.002  0.995 -0.000  0.001  0.000
      -0.000 -0.000  0.997 -0.000 -0.002
      -0.001  0.001 -0.000  0.998 -0.000
       0.000  0.000 -0.002 -0.000  0.995
     SPIN  2
     eigenvalues:
       0.099  0.103  0.996  0.996  0.997
     eigenvectors (columns):
       0.000 -0.536  0.844  0.000 -0.037
      -0.000  0.805  0.524  0.000  0.278
       0.554  0.000  0.000 -0.833  0.000
       0.000 -0.254 -0.119 -0.000  0.960
       0.833  0.000 -0.000  0.554 -0.000
     occupation matrix ns (before diag.):
       0.740  0.385 -0.000 -0.121  0.000
       0.385  0.417 -0.000  0.183  0.000
      -0.000 -0.000  0.721  0.000 -0.414
      -0.121  0.183  0.000  0.939 -0.000
       0.000  0.000 -0.414 -0.000  0.374

     Number of occupied Hubbard levels =   13.3586

     HUBBARD ENERGY =    0.1183  (Ry)

     total cpu time spent up to now is       72.6 secs

     total energy              =   -1120.12341033 Ry
     estimated scf accuracy    <       0.00018500 Ry

     total magnetization       =     7.00 Bohr mag/cell
     absolute magnetization    =     7.03 Bohr mag/cell

     iteration #  7     ecut=   120.00 Ry     beta= 0.70
     Davidson diagonalization with overlap

---- Real-time Memory Report at c_bands before calling an iterative solver
           220 MiB given to the printing process from OS
           178 MiB allocation reported by mallinfo(arena+hblkhd)
        663953 MiB available memory on the node where the printing process lives
------------------
     ethr =  1.70E-07,  avg # of iterations =  1.7

     =================== HUBBARD OCCUPATIONS ===================
     ------------------------ ATOM    1 ------------------------
     Tr[ns(  1)] (up, down, total) =   4.93242  0.25573  5.18815
     Atomic magnetic moment for atom   1 =   4.67668
     SPIN  1
     eigenvalues:
       0.973  0.974  0.995  0.995  0.996
     eigenvectors (columns):
      -0.000  0.593  0.791  0.000  0.151
      -0.000 -0.772  0.612  0.000 -0.170
       0.539 -0.000  0.000 -0.842 -0.000
       0.000  0.227  0.016  0.000 -0.974
       0.842 -0.000 -0.000  0.539  0.000
     occupation matrix ns (before diag.):
       0.987  0.010 -0.000 -0.003  0.000
       0.010  0.982 -0.000  0.004  0.000
      -0.000 -0.000  0.989 -0.000 -0.010
      -0.003  0.004 -0.000  0.994 -0.000
       0.000  0.000 -0.010 -0.000  0.980
     SPIN  2
     eigenvalues:
       0.024  0.024  0.029  0.089  0.089
     eigenvectors (columns):
      -0.000 -0.845  0.019  0.000  0.534
      -0.000 -0.513  0.257 -0.000 -0.819
      -0.827  0.000  0.000  0.562 -0.000
       0.000  0.152  0.966 -0.000  0.207
       0.562 -0.000  0.000  0.827 -0.000
     occupation matrix ns (before diag.):
       0.043 -0.028  0.000  0.007  0.000
      -0.028  0.068 -0.000 -0.010  0.000
       0.000 -0.000  0.045 -0.000  0.030
       0.007 -0.010 -0.000  0.032 -0.000
       0.000  0.000  0.030 -0.000  0.068
     ------------------------ ATOM    2 ------------------------
     Tr[ns(  2)] (up, down, total) =   4.98080  3.19170  8.17250
     Atomic magnetic moment for atom   2 =   1.78911
     SPIN  1
     eigenvalues:
       0.993  0.994  0.998  0.998  0.998
     eigenvectors (columns):
      -0.579 -0.000 -0.805  0.000  0.132
       0.768  0.000 -0.592  0.000 -0.244
      -0.000  0.508 -0.000 -0.861 -0.000
      -0.275  0.000  0.040  0.000 -0.961
      -0.000  0.861  0.000  0.508  0.000
     occupation matrix ns (before diag.):
       0.996  0.002 -0.000 -0.001  0.000
       0.002  0.995 -0.000  0.001  0.000
      -0.000 -0.000  0.997 -0.000 -0.002
      -0.001  0.001 -0.000  0.998 -0.000
       0.000  0.000 -0.002 -0.000  0.995
     SPIN  2
     eigenvalues:
       0.100  0.104  0.996  0.996  0.997
     eigenvectors (columns):
       0.000 -0.536  0.844  0.000 -0.036
      -0.000  0.805  0.523  0.000  0.279
       0.554  0.000  0.000 -0.832  0.000
       0.000 -0.254 -0.121 -0.000  0.960
       0.832  0.000 -0.000  0.554 -0.000
     occupation matrix ns (before diag.):
       0.740  0.385 -0.000 -0.122  0.000
       0.385  0.418 -0.000  0.183  0.000
      -0.000 -0.000  0.721  0.000 -0.414
      -0.122  0.183  0.000  0.939 -0.000
       0.000  0.000 -0.414 -0.000  0.375

     Number of occupied Hubbard levels =   13.3607

     HUBBARD ENERGY =    0.1189  (Ry)

     total cpu time spent up to now is       81.1 secs

     total energy              =   -1120.12343498 Ry
     estimated scf accuracy    <       0.00000751 Ry

     total magnetization       =     7.00 Bohr mag/cell
     absolute magnetization    =     7.03 Bohr mag/cell

     iteration #  8     ecut=   120.00 Ry     beta= 0.70
     Davidson diagonalization with overlap

---- Real-time Memory Report at c_bands before calling an iterative solver
           221 MiB given to the printing process from OS
           179 MiB allocation reported by mallinfo(arena+hblkhd)
        663926 MiB available memory on the node where the printing process lives
------------------
     ethr =  6.89E-09,  avg # of iterations =  4.5

     =================== HUBBARD OCCUPATIONS ===================
     ------------------------ ATOM    1 ------------------------
     Tr[ns(  1)] (up, down, total) =   4.93246  0.25558  5.18805
     Atomic magnetic moment for atom   1 =   4.67688
     SPIN  1
     eigenvalues:
       0.973  0.974  0.995  0.995  0.996
     eigenvectors (columns):
       0.000  0.593  0.791  0.000  0.151
      -0.000 -0.772  0.612  0.000 -0.170
       0.539 -0.000  0.000 -0.842 -0.000
       0.000  0.227  0.016  0.000 -0.974
       0.842 -0.000 -0.000  0.539  0.000
     occupation matrix ns (before diag.):
       0.987  0.010 -0.000 -0.003  0.000
       0.010  0.982 -0.000  0.004  0.000
      -0.000 -0.000  0.989 -0.000 -0.010
      -0.003  0.004 -0.000  0.994 -0.000
       0.000  0.000 -0.010 -0.000  0.980
     SPIN  2
     eigenvalues:
       0.024  0.024  0.029  0.089  0.089
     eigenvectors (columns):
      -0.000  0.845 -0.019  0.000  0.534
      -0.000  0.513 -0.257 -0.000 -0.819
      -0.827 -0.000 -0.000  0.562 -0.000
       0.000 -0.153 -0.966 -0.000  0.207
       0.562  0.000 -0.000  0.827 -0.000
     occupation matrix ns (before diag.):
       0.043 -0.028  0.000  0.007  0.000
      -0.028  0.068 -0.000 -0.010  0.000
       0.000 -0.000  0.045 -0.000  0.030
       0.007 -0.010 -0.000  0.032 -0.000
       0.000  0.000  0.030 -0.000  0.068
     ------------------------ ATOM    2 ------------------------
     Tr[ns(  2)] (up, down, total) =   4.98083  3.19225  8.17308
     Atomic magnetic moment for atom   2 =   1.78858
     SPIN  1
     eigenvalues:
       0.993  0.994  0.998  0.998  0.998
     eigenvectors (columns):
      -0.579 -0.000  0.805  0.000 -0.130
       0.768  0.000  0.592  0.000  0.245
      -0.000  0.508  0.000 -0.861  0.000
      -0.274  0.000 -0.042  0.000  0.961
      -0.000  0.861 -0.000  0.508 -0.000
     occupation matrix ns (before diag.):
       0.996  0.002 -0.000 -0.001  0.000
       0.002  0.995 -0.000  0.001  0.000
      -0.000 -0.000  0.997 -0.000 -0.002
      -0.001  0.001 -0.000  0.998 -0.000
       0.000  0.000 -0.002 -0.000  0.995
     SPIN  2
     eigenvalues:
       0.100  0.104  0.996  0.996  0.997
     eigenvectors (columns):
       0.000  0.536  0.844  0.000  0.034
      -0.000 -0.805  0.522  0.000 -0.282
       0.554 -0.000  0.000 -0.832 -0.000
       0.000  0.255 -0.124 -0.000 -0.959
       0.832 -0.000 -0.000  0.554  0.000
     occupation matrix ns (before diag.):
       0.740  0.385 -0.000 -0.122  0.000
       0.385  0.418 -0.000  0.183  0.000
      -0.000 -0.000  0.721  0.000 -0.414
      -0.122  0.183  0.000  0.939 -0.000
       0.000  0.000 -0.414 -0.000  0.375

     Number of occupied Hubbard levels =   13.3611

     HUBBARD ENERGY =    0.1190  (Ry)

     total cpu time spent up to now is       94.6 secs

     total energy              =   -1120.12343810 Ry
     estimated scf accuracy    <       0.00000504 Ry

     total magnetization       =     7.00 Bohr mag/cell
     absolute magnetization    =     7.03 Bohr mag/cell

     iteration #  9     ecut=   120.00 Ry     beta= 0.70
     Davidson diagonalization with overlap

---- Real-time Memory Report at c_bands before calling an iterative solver
           221 MiB given to the printing process from OS
           179 MiB allocation reported by mallinfo(arena+hblkhd)
        663877 MiB available memory on the node where the printing process lives
------------------
     ethr =  4.63E-09,  avg # of iterations =  2.0

     =================== HUBBARD OCCUPATIONS ===================
     ------------------------ ATOM    1 ------------------------
     Tr[ns(  1)] (up, down, total) =   4.93238  0.25559  5.18797
     Atomic magnetic moment for atom   1 =   4.67679
     SPIN  1
     eigenvalues:
       0.973  0.974  0.995  0.995  0.996
     eigenvectors (columns):
       0.000  0.593  0.791  0.000  0.150
      -0.000 -0.772  0.612  0.000 -0.170
       0.539 -0.000  0.000 -0.842 -0.000
       0.000  0.227  0.015  0.000 -0.974
       0.842 -0.000 -0.000  0.539  0.000
     occupation matrix ns (before diag.):
       0.987  0.010 -0.000 -0.003  0.000
       0.010  0.982 -0.000  0.004  0.000
      -0.000 -0.000  0.989 -0.000 -0.010
      -0.003  0.004 -0.000  0.994 -0.000
       0.000  0.000 -0.010 -0.000  0.980
     SPIN  2
     eigenvalues:
       0.024  0.024  0.029  0.089  0.089
     eigenvectors (columns):
      -0.000  0.845 -0.019  0.000  0.534
      -0.000  0.513 -0.257 -0.000 -0.819
      -0.827 -0.000 -0.000  0.562 -0.000
       0.000 -0.153 -0.966 -0.000  0.207
       0.562  0.000 -0.000  0.827 -0.000
     occupation matrix ns (before diag.):
       0.043 -0.028  0.000  0.007  0.000
      -0.028  0.068 -0.000 -0.010  0.000
       0.000 -0.000  0.045 -0.000  0.030
       0.007 -0.010 -0.000  0.032 -0.000
       0.000  0.000  0.030 -0.000  0.068
     ------------------------ ATOM    2 ------------------------
     Tr[ns(  2)] (up, down, total) =   4.98081  3.19235  8.17317
     Atomic magnetic moment for atom   2 =   1.78846
     SPIN  1
     eigenvalues:
       0.993  0.994  0.998  0.998  0.998
     eigenvectors (columns):
      -0.579 -0.000  0.805  0.000 -0.129
       0.768  0.000  0.591  0.000  0.246
      -0.000  0.508  0.000 -0.862  0.000
      -0.274  0.000 -0.044  0.000  0.961
      -0.000  0.862 -0.000  0.508 -0.000
     occupation matrix ns (before diag.):
       0.996  0.002 -0.000 -0.001  0.000
       0.002  0.995 -0.000  0.001  0.000
      -0.000 -0.000  0.997 -0.000 -0.002
      -0.001  0.001 -0.000  0.998 -0.000
       0.000  0.000 -0.002 -0.000  0.995
     SPIN  2
     eigenvalues:
       0.100  0.104  0.996  0.996  0.997
     eigenvectors (columns):
       0.000  0.536  0.844  0.000  0.032
      -0.000 -0.805  0.522  0.000 -0.283
       0.555 -0.000  0.000 -0.832 -0.000
       0.000  0.256 -0.126 -0.000 -0.959
       0.832 -0.000 -0.000  0.555  0.000
     occupation matrix ns (before diag.):
       0.740  0.385 -0.000 -0.122  0.000
       0.385  0.418 -0.000  0.184  0.000
      -0.000 -0.000  0.720  0.000 -0.414
      -0.122  0.184  0.000  0.938 -0.000
       0.000  0.000 -0.414 -0.000  0.375

     Number of occupied Hubbard levels =   13.3611

     HUBBARD ENERGY =    0.1190  (Ry)

     total cpu time spent up to now is      104.2 secs

     total energy              =   -1120.12343926 Ry
     estimated scf accuracy    <       0.00000035 Ry

     total magnetization       =     7.00 Bohr mag/cell
     absolute magnetization    =     7.03 Bohr mag/cell

     iteration # 10     ecut=   120.00 Ry     beta= 0.70
     Davidson diagonalization with overlap

---- Real-time Memory Report at c_bands before calling an iterative solver
           221 MiB given to the printing process from OS
           179 MiB allocation reported by mallinfo(arena+hblkhd)
        663849 MiB available memory on the node where the printing process lives
------------------
     ethr =  3.25E-10,  avg # of iterations =  2.5

     =================== HUBBARD OCCUPATIONS ===================
     ------------------------ ATOM    1 ------------------------
     Tr[ns(  1)] (up, down, total) =   4.93237  0.25556  5.18793
     Atomic magnetic moment for atom   1 =   4.67681
     SPIN  1
     eigenvalues:
       0.973  0.974  0.995  0.995  0.996
     eigenvectors (columns):
      -0.000  0.593  0.791  0.000  0.151
      -0.000 -0.772  0.612  0.000 -0.170
       0.539 -0.000  0.000 -0.842 -0.000
       0.000  0.227  0.015  0.000 -0.974
       0.842 -0.000 -0.000  0.539  0.000
     occupation matrix ns (before diag.):
       0.987  0.010 -0.000 -0.003  0.000
       0.010  0.982 -0.000  0.004  0.000
      -0.000 -0.000  0.989 -0.000 -0.010
      -0.003  0.004 -0.000  0.994 -0.000
       0.000  0.000 -0.010 -0.000  0.980
     SPIN  2
     eigenvalues:
       0.024  0.024  0.029  0.089  0.089
     eigenvectors (columns):
      -0.000 -0.845  0.019  0.000  0.534
      -0.000 -0.513  0.257 -0.000 -0.819
      -0.827  0.000  0.000  0.562 -0.000
       0.000  0.153  0.966 -0.000  0.207
       0.562 -0.000  0.000  0.827 -0.000
     occupation matrix ns (before diag.):
       0.043 -0.028  0.000  0.007  0.000
      -0.028  0.068 -0.000 -0.010  0.000
       0.000 -0.000  0.045 -0.000  0.030
       0.007 -0.010 -0.000  0.032 -0.000
       0.000  0.000  0.030 -0.000  0.068
     ------------------------ ATOM    2 ------------------------
     Tr[ns(  2)] (up, down, total) =   4.98081  3.19237  8.17319
     Atomic magnetic moment for atom   2 =   1.78844
     SPIN  1
     eigenvalues:
       0.993  0.994  0.998  0.998  0.998
     eigenvectors (columns):
      -0.578 -0.000 -0.806  0.000  0.128
       0.768  0.000 -0.591  0.000 -0.246
      -0.000  0.508 -0.000 -0.862 -0.000
      -0.274  0.000  0.044  0.000 -0.961
      -0.000  0.862  0.000  0.508  0.000
     occupation matrix ns (before diag.):
       0.996  0.002 -0.000 -0.001  0.000
       0.002  0.995 -0.000  0.001  0.000
      -0.000 -0.000  0.997 -0.000 -0.002
      -0.001  0.001 -0.000  0.998 -0.000
       0.000  0.000 -0.002 -0.000  0.995
     SPIN  2
     eigenvalues:
       0.100  0.104  0.996  0.996  0.997
     eigenvectors (columns):
       0.000 -0.536  0.844  0.000 -0.032
      -0.000  0.804  0.522  0.000  0.284
       0.555  0.000  0.000 -0.832  0.000
       0.000 -0.256 -0.127 -0.000  0.958
       0.832  0.000 -0.000  0.555 -0.000
     occupation matrix ns (before diag.):
       0.740  0.385 -0.000 -0.122  0.000
       0.385  0.419 -0.000  0.184  0.000
      -0.000 -0.000  0.720  0.000 -0.414
      -0.122  0.184  0.000  0.938 -0.000
       0.000  0.000 -0.414 -0.000  0.376

     Number of occupied Hubbard levels =   13.3611

     HUBBARD ENERGY =    0.1190  (Ry)

     total cpu time spent up to now is      114.3 secs

     total energy              =   -1120.12343958 Ry
     estimated scf accuracy    <       0.00000012 Ry

     total magnetization       =     7.00 Bohr mag/cell
     absolute magnetization    =     7.03 Bohr mag/cell

     iteration # 11     ecut=   120.00 Ry     beta= 0.70
     Davidson diagonalization with overlap

---- Real-time Memory Report at c_bands before calling an iterative solver
           222 MiB given to the printing process from OS
           180 MiB allocation reported by mallinfo(arena+hblkhd)
        663814 MiB available memory on the node where the printing process lives
------------------
     ethr =  1.13E-10,  avg # of iterations =  3.3

     =================== HUBBARD OCCUPATIONS ===================
     ------------------------ ATOM    1 ------------------------
     Tr[ns(  1)] (up, down, total) =   4.93237  0.25556  5.18792
     Atomic magnetic moment for atom   1 =   4.67681
     SPIN  1
     eigenvalues:
       0.973  0.974  0.995  0.995  0.996
     eigenvectors (columns):
      -0.000  0.593  0.791  0.000  0.151
      -0.000 -0.772  0.612  0.000 -0.170
       0.539 -0.000  0.000 -0.842 -0.000
       0.000  0.227  0.015  0.000 -0.974
       0.842 -0.000 -0.000  0.539  0.000
     occupation matrix ns (before diag.):
       0.987  0.010 -0.000 -0.003  0.000
       0.010  0.982 -0.000  0.004  0.000
      -0.000 -0.000  0.989 -0.000 -0.010
      -0.003  0.004 -0.000  0.994 -0.000
       0.000  0.000 -0.010 -0.000  0.980
     SPIN  2
     eigenvalues:
       0.024  0.024  0.029  0.089  0.089
     eigenvectors (columns):
      -0.000 -0.845  0.019  0.000  0.534
      -0.000 -0.513  0.257 -0.000 -0.819
      -0.827  0.000  0.000  0.562 -0.000
       0.000  0.153  0.966 -0.000  0.207
       0.562 -0.000  0.000  0.827 -0.000
     occupation matrix ns (before diag.):
       0.043 -0.028  0.000  0.007  0.000
      -0.028  0.068 -0.000 -0.010  0.000
       0.000 -0.000  0.045 -0.000  0.030
       0.007 -0.010 -0.000  0.032 -0.000
       0.000  0.000  0.030 -0.000  0.068
     ------------------------ ATOM    2 ------------------------
     Tr[ns(  2)] (up, down, total) =   4.98081  3.19234  8.17315
     Atomic magnetic moment for atom   2 =   1.78848
     SPIN  1
     eigenvalues:
       0.993  0.994  0.998  0.998  0.998
     eigenvectors (columns):
      -0.578 -0.000 -0.806  0.000  0.128
       0.768  0.000 -0.591  0.000 -0.246
      -0.000  0.508 -0.000 -0.862 -0.000
      -0.274  0.000  0.044  0.000 -0.961
      -0.000  0.862  0.000  0.508  0.000
     occupation matrix ns (before diag.):
       0.996  0.002 -0.000 -0.001  0.000
       0.002  0.995 -0.000  0.001  0.000
      -0.000 -0.000  0.997 -0.000 -0.002
      -0.001  0.001 -0.000  0.998 -0.000
       0.000  0.000 -0.002 -0.000  0.995
     SPIN  2
     eigenvalues:
       0.100  0.104  0.996  0.996  0.997
     eigenvectors (columns):
       0.000 -0.536  0.844  0.000 -0.031
      -0.000  0.804  0.521  0.000  0.285
       0.555  0.000  0.000 -0.832  0.000
       0.000 -0.257 -0.128 -0.000  0.958
       0.832  0.000 -0.000  0.555 -0.000
     occupation matrix ns (before diag.):
       0.740  0.385 -0.000 -0.123  0.000
       0.385  0.419 -0.000  0.184  0.000
      -0.000 -0.000  0.720  0.000 -0.414
      -0.123  0.184  0.000  0.938 -0.000
       0.000  0.000 -0.414 -0.000  0.376

     Number of occupied Hubbard levels =   13.3611

     HUBBARD ENERGY =    0.1190  (Ry)

     total cpu time spent up to now is      124.4 secs

     total energy              =   -1120.12343973 Ry
     estimated scf accuracy    <       0.00000005 Ry

     total magnetization       =     7.00 Bohr mag/cell
     absolute magnetization    =     7.03 Bohr mag/cell

     iteration # 12     ecut=   120.00 Ry     beta= 0.70
     Davidson diagonalization with overlap

---- Real-time Memory Report at c_bands before calling an iterative solver
           222 MiB given to the printing process from OS
           180 MiB allocation reported by mallinfo(arena+hblkhd)
        663809 MiB available memory on the node where the printing process lives
------------------
     ethr =  4.91E-11,  avg # of iterations =  2.8

     =================== HUBBARD OCCUPATIONS ===================
     ------------------------ ATOM    1 ------------------------
     Tr[ns(  1)] (up, down, total) =   4.93237  0.25556  5.18793
     Atomic magnetic moment for atom   1 =   4.67681
     SPIN  1
     eigenvalues:
       0.973  0.974  0.995  0.995  0.996
     eigenvectors (columns):
      -0.000  0.593  0.791  0.000  0.151
      -0.000 -0.772  0.612  0.000 -0.170
       0.539 -0.000  0.000 -0.842 -0.000
       0.000  0.227  0.015  0.000 -0.974
       0.842 -0.000 -0.000  0.539  0.000
     occupation matrix ns (before diag.):
       0.987  0.010 -0.000 -0.003  0.000
       0.010  0.982 -0.000  0.004  0.000
      -0.000 -0.000  0.989 -0.000 -0.010
      -0.003  0.004 -0.000  0.994 -0.000
       0.000  0.000 -0.010 -0.000  0.980
     SPIN  2
     eigenvalues:
       0.024  0.024  0.029  0.089  0.089
     eigenvectors (columns):
      -0.000  0.845 -0.019  0.000  0.534
      -0.000  0.513 -0.257 -0.000 -0.819
      -0.827 -0.000 -0.000  0.562 -0.000
       0.000 -0.153 -0.966 -0.000  0.207
       0.562  0.000 -0.000  0.827 -0.000
     occupation matrix ns (before diag.):
       0.043 -0.028  0.000  0.007  0.000
      -0.028  0.068 -0.000 -0.010  0.000
       0.000 -0.000  0.045 -0.000  0.030
       0.007 -0.010 -0.000  0.032 -0.000
       0.000  0.000  0.030 -0.000  0.068
     ------------------------ ATOM    2 ------------------------
     Tr[ns(  2)] (up, down, total) =   4.98081  3.19233  8.17314
     Atomic magnetic moment for atom   2 =   1.78849
     SPIN  1
     eigenvalues:
       0.993  0.994  0.998  0.998  0.998
     eigenvectors (columns):
      -0.578 -0.000  0.806  0.000 -0.127
       0.769  0.000  0.591  0.000  0.246
      -0.000  0.508  0.000 -0.862  0.000
      -0.273  0.000 -0.045  0.000  0.961
      -0.000  0.862 -0.000  0.508 -0.000
     occupation matrix ns (before diag.):
       0.996  0.002 -0.000 -0.001  0.000
       0.002  0.995 -0.000  0.001  0.000
      -0.000 -0.000  0.997 -0.000 -0.002
      -0.001  0.001 -0.000  0.998 -0.000
       0.000  0.000 -0.002 -0.000  0.995
     SPIN  2
     eigenvalues:
       0.100  0.104  0.996  0.996  0.997
     eigenvectors (columns):
       0.000 -0.536  0.844  0.000 -0.031
      -0.000  0.804  0.521  0.000  0.286
       0.555  0.000  0.000 -0.832  0.000
       0.000 -0.257 -0.128 -0.000  0.958
       0.832  0.000 -0.000  0.555 -0.000
     occupation matrix ns (before diag.):
       0.740  0.384 -0.000 -0.123  0.000
       0.384  0.419 -0.000  0.185  0.000
      -0.000 -0.000  0.720  0.000 -0.414
      -0.123  0.185  0.000  0.938 -0.000
       0.000  0.000 -0.414 -0.000  0.376

     Number of occupied Hubbard levels =   13.3611

     HUBBARD ENERGY =    0.1190  (Ry)

     total cpu time spent up to now is      134.4 secs

     total energy              =   -1120.12343983 Ry
     estimated scf accuracy    <       0.00000002 Ry

     total magnetization       =     7.00 Bohr mag/cell
     absolute magnetization    =     7.03 Bohr mag/cell

     iteration # 13     ecut=   120.00 Ry     beta= 0.70
     Davidson diagonalization with overlap

---- Real-time Memory Report at c_bands before calling an iterative solver
           222 MiB given to the printing process from OS
           180 MiB allocation reported by mallinfo(arena+hblkhd)
        663809 MiB available memory on the node where the printing process lives
------------------
     ethr =  2.06E-11,  avg # of iterations =  2.9

     =================== HUBBARD OCCUPATIONS ===================
     ------------------------ ATOM    1 ------------------------
     Tr[ns(  1)] (up, down, total) =   4.93237  0.25556  5.18793
     Atomic magnetic moment for atom   1 =   4.67681
     SPIN  1
     eigenvalues:
       0.973  0.974  0.995  0.995  0.996
     eigenvectors (columns):
       0.000  0.593  0.791  0.000  0.151
      -0.000 -0.772  0.612  0.000 -0.170
       0.539 -0.000  0.000 -0.842 -0.000
       0.000  0.227  0.015  0.000 -0.974
       0.842 -0.000 -0.000  0.539  0.000
     occupation matrix ns (before diag.):
       0.987  0.010 -0.000 -0.003  0.000
       0.010  0.982 -0.000  0.004  0.000
      -0.000 -0.000  0.989 -0.000 -0.010
      -0.003  0.004 -0.000  0.994 -0.000
       0.000  0.000 -0.010 -0.000  0.980
     SPIN  2
     eigenvalues:
       0.024  0.024  0.029  0.089  0.089
     eigenvectors (columns):
      -0.000 -0.845  0.019  0.000  0.534
      -0.000 -0.513  0.257 -0.000 -0.819
      -0.827  0.000  0.000  0.562 -0.000
       0.000  0.153  0.966 -0.000  0.207
       0.562 -0.000  0.000  0.827 -0.000
     occupation matrix ns (before diag.):
       0.043 -0.028  0.000  0.007  0.000
      -0.028  0.068 -0.000 -0.010  0.000
       0.000 -0.000  0.045 -0.000  0.030
       0.007 -0.010 -0.000  0.032 -0.000
       0.000  0.000  0.030 -0.000  0.068
     ------------------------ ATOM    2 ------------------------
     Tr[ns(  2)] (up, down, total) =   4.98081  3.19233  8.17314
     Atomic magnetic moment for atom   2 =   1.78849
     SPIN  1
     eigenvalues:
       0.993  0.994  0.998  0.998  0.998
     eigenvectors (columns):
      -0.578 -0.000 -0.806  0.000  0.127
       0.769  0.000 -0.591  0.000 -0.246
      -0.000  0.508 -0.000 -0.862 -0.000
      -0.273  0.000  0.045  0.000 -0.961
      -0.000  0.862  0.000  0.508  0.000
     occupation matrix ns (before diag.):
       0.996  0.002 -0.000 -0.001  0.000
       0.002  0.995 -0.000  0.001  0.000
      -0.000 -0.000  0.997 -0.000 -0.002
      -0.001  0.001 -0.000  0.998 -0.000
       0.000  0.000 -0.002 -0.000  0.995
     SPIN  2
     eigenvalues:
       0.100  0.104  0.996  0.996  0.997
     eigenvectors (columns):
       0.000 -0.536  0.844  0.000 -0.031
      -0.000  0.804  0.521  0.000  0.286
       0.555  0.000  0.000 -0.832  0.000
       0.000 -0.257 -0.128 -0.000  0.958
       0.832  0.000 -0.000  0.555 -0.000
     occupation matrix ns (before diag.):
       0.740  0.384 -0.000 -0.123  0.000
       0.384  0.419 -0.000  0.185  0.000
      -0.000 -0.000  0.720  0.000 -0.414
      -0.123  0.185  0.000  0.937 -0.000
       0.000  0.000 -0.414 -0.000  0.376

     Number of occupied Hubbard levels =   13.3611

     HUBBARD ENERGY =    0.1190  (Ry)

     total cpu time spent up to now is      145.4 secs

     total energy              =   -1120.12343991 Ry
     estimated scf accuracy    <          8.5E-09 Ry

     total magnetization       =     7.00 Bohr mag/cell
     absolute magnetization    =     7.03 Bohr mag/cell

     iteration # 14     ecut=   120.00 Ry     beta= 0.70
     Davidson diagonalization with overlap

---- Real-time Memory Report at c_bands before calling an iterative solver
           222 MiB given to the printing process from OS
           180 MiB allocation reported by mallinfo(arena+hblkhd)
        667935 MiB available memory on the node where the printing process lives
------------------
     ethr =  7.83E-12,  avg # of iterations =  2.3

     =================== HUBBARD OCCUPATIONS ===================
     ------------------------ ATOM    1 ------------------------
     Tr[ns(  1)] (up, down, total) =   4.93237  0.25556  5.18793
     Atomic magnetic moment for atom   1 =   4.67681
     SPIN  1
     eigenvalues:
       0.973  0.974  0.995  0.995  0.996
     eigenvectors (columns):
       0.000  0.593  0.791  0.000  0.151
      -0.000 -0.772  0.612  0.000 -0.170
       0.539 -0.000  0.000 -0.842 -0.000
       0.000  0.227  0.015  0.000 -0.974
       0.842 -0.000 -0.000  0.539  0.000
     occupation matrix ns (before diag.):
       0.987  0.010 -0.000 -0.003  0.000
       0.010  0.982 -0.000  0.004  0.000
      -0.000 -0.000  0.989 -0.000 -0.010
      -0.003  0.004 -0.000  0.994 -0.000
       0.000  0.000 -0.010 -0.000  0.980
     SPIN  2
     eigenvalues:
       0.024  0.024  0.029  0.089  0.089
     eigenvectors (columns):
      -0.000 -0.845  0.019  0.000  0.534
      -0.000 -0.513  0.257 -0.000 -0.819
      -0.827  0.000  0.000  0.562 -0.000
       0.000  0.153  0.966 -0.000  0.207
       0.562 -0.000  0.000  0.827 -0.000
     occupation matrix ns (before diag.):
       0.043 -0.028  0.000  0.007  0.000
      -0.028  0.068 -0.000 -0.010  0.000
       0.000 -0.000  0.045 -0.000  0.030
       0.007 -0.010 -0.000  0.032 -0.000
       0.000  0.000  0.030 -0.000  0.068
     ------------------------ ATOM    2 ------------------------
     Tr[ns(  2)] (up, down, total) =   4.98081  3.19233  8.17315
     Atomic magnetic moment for atom   2 =   1.78848
     SPIN  1
     eigenvalues:
       0.993  0.994  0.998  0.998  0.998
     eigenvectors (columns):
      -0.578 -0.000 -0.806  0.000  0.127
       0.769  0.000 -0.591  0.000 -0.246
      -0.000  0.507 -0.000 -0.862 -0.000
      -0.273  0.000  0.045  0.000 -0.961
      -0.000  0.862  0.000  0.507  0.000
     occupation matrix ns (before diag.):
       0.996  0.002 -0.000 -0.001  0.000
       0.002  0.995 -0.000  0.001  0.000
      -0.000 -0.000  0.997 -0.000 -0.002
      -0.001  0.001 -0.000  0.998 -0.000
       0.000  0.000 -0.002 -0.000  0.995
     SPIN  2
     eigenvalues:
       0.100  0.104  0.996  0.996  0.997
     eigenvectors (columns):
       0.000 -0.536  0.844  0.000 -0.031
      -0.000  0.804  0.521  0.000  0.286
       0.555  0.000  0.000 -0.832  0.000
       0.000 -0.257 -0.129 -0.000  0.958
       0.832  0.000 -0.000  0.555 -0.000
     occupation matrix ns (before diag.):
       0.740  0.384 -0.000 -0.123  0.000
       0.384  0.419 -0.000  0.185  0.000
      -0.000 -0.000  0.720  0.000 -0.414
      -0.123  0.185  0.000  0.937 -0.000
       0.000  0.000 -0.414 -0.000  0.376

     Number of occupied Hubbard levels =   13.3611

     HUBBARD ENERGY =    0.1190  (Ry)

     total cpu time spent up to now is      155.0 secs

     total energy              =   -1120.12343992 Ry
     estimated scf accuracy    <          3.9E-09 Ry

     total magnetization       =     7.00 Bohr mag/cell
     absolute magnetization    =     7.03 Bohr mag/cell

     iteration # 15     ecut=   120.00 Ry     beta= 0.70
     Davidson diagonalization with overlap

---- Real-time Memory Report at c_bands before calling an iterative solver
           222 MiB given to the printing process from OS
           180 MiB allocation reported by mallinfo(arena+hblkhd)
        667935 MiB available memory on the node where the printing process lives
------------------
     ethr =  3.56E-12,  avg # of iterations =  3.1

     =================== HUBBARD OCCUPATIONS ===================
     ------------------------ ATOM    1 ------------------------
     Tr[ns(  1)] (up, down, total) =   4.93237  0.25556  5.18793
     Atomic magnetic moment for atom   1 =   4.67681
     SPIN  1
     eigenvalues:
       0.973  0.974  0.995  0.995  0.996
     eigenvectors (columns):
      -0.000  0.593  0.791  0.000  0.151
      -0.000 -0.772  0.612  0.000 -0.170
       0.539 -0.000  0.000 -0.842 -0.000
       0.000  0.227  0.015  0.000 -0.974
       0.842 -0.000 -0.000  0.539  0.000
     occupation matrix ns (before diag.):
       0.987  0.010 -0.000 -0.003  0.000
       0.010  0.982 -0.000  0.004  0.000
      -0.000 -0.000  0.989 -0.000 -0.010
      -0.003  0.004 -0.000  0.994 -0.000
       0.000  0.000 -0.010 -0.000  0.980
     SPIN  2
     eigenvalues:
       0.024  0.024  0.029  0.089  0.089
     eigenvectors (columns):
      -0.000 -0.845  0.019  0.000  0.534
      -0.000 -0.513  0.257 -0.000 -0.819
      -0.827  0.000  0.000  0.562 -0.000
       0.000  0.153  0.966 -0.000  0.207
       0.562 -0.000 -0.000  0.827 -0.000
     occupation matrix ns (before diag.):
       0.043 -0.028  0.000  0.007  0.000
      -0.028  0.068 -0.000 -0.010  0.000
       0.000 -0.000  0.045 -0.000  0.030
       0.007 -0.010 -0.000  0.032 -0.000
       0.000  0.000  0.030 -0.000  0.068
     ------------------------ ATOM    2 ------------------------
     Tr[ns(  2)] (up, down, total) =   4.98081  3.19233  8.17315
     Atomic magnetic moment for atom   2 =   1.78848
     SPIN  1
     eigenvalues:
       0.993  0.994  0.998  0.998  0.998
     eigenvectors (columns):
      -0.578 -0.000 -0.806  0.000  0.127
       0.769  0.000 -0.591  0.000 -0.246
      -0.000  0.507 -0.000 -0.862 -0.000
      -0.273  0.000  0.045  0.000 -0.961
      -0.000  0.862  0.000  0.507  0.000
     occupation matrix ns (before diag.):
       0.996  0.002 -0.000 -0.001  0.000
       0.002  0.995 -0.000  0.001  0.000
      -0.000 -0.000  0.997 -0.000 -0.002
      -0.001  0.001 -0.000  0.998 -0.000
       0.000  0.000 -0.002 -0.000  0.995
     SPIN  2
     eigenvalues:
       0.100  0.104  0.996  0.996  0.997
     eigenvectors (columns):
       0.000  0.536  0.844  0.000  0.031
      -0.000 -0.804  0.521  0.000 -0.286
       0.555 -0.000  0.000 -0.832 -0.000
       0.000  0.257 -0.129 -0.000 -0.958
       0.832 -0.000 -0.000  0.555  0.000
     occupation matrix ns (before diag.):
       0.740  0.384 -0.000 -0.123  0.000
       0.384  0.419 -0.000  0.185  0.000
      -0.000 -0.000  0.720  0.000 -0.414
      -0.123  0.185  0.000  0.937 -0.000
       0.000  0.000 -0.414 -0.000  0.376

     Number of occupied Hubbard levels =   13.3611

     HUBBARD ENERGY =    0.1190  (Ry)

     total cpu time spent up to now is      164.7 secs

     total energy              =   -1120.12343989 Ry
     estimated scf accuracy    <          2.6E-09 Ry

     total magnetization       =     7.00 Bohr mag/cell
     absolute magnetization    =     7.03 Bohr mag/cell

     iteration # 16     ecut=   120.00 Ry     beta= 0.70
     Davidson diagonalization with overlap

---- Real-time Memory Report at c_bands before calling an iterative solver
           222 MiB given to the printing process from OS
           180 MiB allocation reported by mallinfo(arena+hblkhd)
        667935 MiB available memory on the node where the printing process lives
------------------
     ethr =  2.36E-12,  avg # of iterations =  3.5

     =================== HUBBARD OCCUPATIONS ===================
     ------------------------ ATOM    1 ------------------------
     Tr[ns(  1)] (up, down, total) =   4.93237  0.25556  5.18794
     Atomic magnetic moment for atom   1 =   4.67681
     SPIN  1
     eigenvalues:
       0.973  0.974  0.995  0.995  0.996
     eigenvectors (columns):
      -0.000  0.593  0.791  0.000  0.151
      -0.000 -0.772  0.612  0.000 -0.170
       0.539 -0.000  0.000 -0.842 -0.000
       0.000  0.227  0.015  0.000 -0.974
       0.842 -0.000 -0.000  0.539  0.000
     occupation matrix ns (before diag.):
       0.987  0.010 -0.000 -0.003  0.000
       0.010  0.982 -0.000  0.004  0.000
      -0.000 -0.000  0.989 -0.000 -0.010
      -0.003  0.004 -0.000  0.994 -0.000
       0.000  0.000 -0.010 -0.000  0.980
     SPIN  2
     eigenvalues:
       0.024  0.024  0.029  0.089  0.089
     eigenvectors (columns):
      -0.000 -0.845  0.019  0.000  0.534
      -0.000 -0.513  0.257 -0.000 -0.819
      -0.827  0.000  0.000  0.562 -0.000
       0.000  0.153  0.966 -0.000  0.207
       0.562 -0.000  0.000  0.827 -0.000
     occupation matrix ns (before diag.):
       0.043 -0.028  0.000  0.007  0.000
      -0.028  0.068 -0.000 -0.010  0.000
       0.000 -0.000  0.045 -0.000  0.030
       0.007 -0.010 -0.000  0.032 -0.000
       0.000  0.000  0.030 -0.000  0.068
     ------------------------ ATOM    2 ------------------------
     Tr[ns(  2)] (up, down, total) =   4.98081  3.19233  8.17314
     Atomic magnetic moment for atom   2 =   1.78849
     SPIN  1
     eigenvalues:
       0.993  0.994  0.998  0.998  0.998
     eigenvectors (columns):
      -0.579 -0.000 -0.806  0.000  0.127
       0.769  0.000 -0.591  0.000 -0.246
      -0.000  0.507 -0.000 -0.862 -0.000
      -0.273  0.000  0.045  0.000 -0.961
      -0.000  0.862  0.000  0.507  0.000
     occupation matrix ns (before diag.):
       0.996  0.002 -0.000 -0.001  0.000
       0.002  0.995 -0.000  0.001  0.000
      -0.000 -0.000  0.997 -0.000 -0.002
      -0.001  0.001 -0.000  0.998 -0.000
       0.000  0.000 -0.002 -0.000  0.995
     SPIN  2
     eigenvalues:
       0.100  0.104  0.996  0.996  0.997
     eigenvectors (columns):
       0.000 -0.535  0.844  0.000 -0.031
      -0.000  0.804  0.521  0.000  0.286
       0.555  0.000  0.000 -0.832  0.000
       0.000 -0.258 -0.128 -0.000  0.958
       0.832  0.000 -0.000  0.555 -0.000
     occupation matrix ns (before diag.):
       0.740  0.384 -0.000 -0.123  0.000
       0.384  0.419 -0.000  0.185  0.000
      -0.000 -0.000  0.720  0.000 -0.414
      -0.123  0.185  0.000  0.937 -0.000
       0.000  0.000 -0.414 -0.000  0.376

     Number of occupied Hubbard levels =   13.3611

     HUBBARD ENERGY =    0.1190  (Ry)
 
     Magnetic moment per site  (integrated on atomic sphere of radius R)
     atom   1 (R=0.184)  charge= 12.2404  magn=  4.0990
     atom   2 (R=0.182)  charge= 15.4540  magn=  1.7548
     atom   3 (R=0.159)  charge=  7.6943  magn=  0.0354
     atom   4 (R=0.159)  charge=  7.6947  magn=  0.0451
     atom   5 (R=0.159)  charge=  5.0055  magn=  0.0265
     atom   6 (R=0.159)  charge=  5.0055  magn=  0.0265
     atom   7 (R=0.159)  charge=  5.0065  magn=  0.0279
     atom   8 (R=0.159)  charge=  5.0065  magn=  0.0279
     atom   9 (R=0.159)  charge=  5.0249  magn=  0.0145
     atom  10 (R=0.159)  charge=  5.0249  magn=  0.0145
     atom  11 (R=0.159)  charge=  4.9940  magn=  0.0263
     atom  12 (R=0.159)  charge=  4.9940  magn=  0.0263

     total cpu time spent up to now is      176.1 secs

     End of self-consistent calculation

 ------ SPIN UP ------------


          k = 0.0832 0.0683 0.0787 ( 19362 PWs)   bands (ev):

   -93.6880 -68.8702 -64.3314 -64.3225 -54.2908 -54.2731 -54.2499 -37.9258
   -37.9178 -37.9017 -28.7780 -28.7262 -28.6873 -28.6237 -28.6107 -28.5540
    -8.5502  -7.3738  -7.1995  -7.0617  -6.9185  -6.7529  -6.5413  -6.3153
     2.2742   2.3449   3.1667   3.4043   3.4574   3.6629   4.3177   4.4112
     4.5949   4.7697   5.0873   5.4127   5.6410   6.0208   6.3144   6.4186
     6.6434   6.6919   7.0121   7.3228   7.4728   7.6930   7.8582   8.0820
     8.1672   8.4983   8.6480   8.8159   8.9237   9.0182   9.3464   9.4600
     9.9892  10.4944  13.2780  13.5761  13.6790  13.9826  14.5484  14.8255
    16.2854  17.2906

     occupation numbers 
     1.0000   1.0000   1.0000   1.0000   1.0000   1.0000   1.0000   1.0000
     1.0000   1.0000   1.0000   1.0000   1.0000   1.0000   1.0000   1.0000
     1.0000   1.0000   1.0000   1.0000   1.0000   1.0000   1.0000   1.0000
     1.0000   1.0000   1.0000   1.0000   1.0000   1.0000   1.0000   1.0000
     1.0000   1.0000   1.0000   1.0000   1.0000   1.0000   1.0000   1.0000
     1.0000   1.0000   1.0000   1.0000   1.0000   1.0000   1.0000   1.0000
     1.0000   1.0000   1.0000   1.0000   1.0000   1.0000   1.0000   1.0000
     1.0000   1.0000   0.0000   0.0000   0.0000   0.0000   0.0000   0.0000
     0.0000   0.0000

          k = 0.0829 0.0683 0.2349 ( 19337 PWs)   bands (ev):

   -93.6880 -68.8703 -64.3303 -64.3236 -54.2908 -54.2731 -54.2499 -37.9258
   -37.9178 -37.9017 -28.7782 -28.7348 -28.6801 -28.6365 -28.6015 -28.5499
    -8.3560  -7.4104  -7.3189  -7.1868  -6.8029  -6.7360  -6.5717  -6.3597
     2.2746   2.3281   3.2519   3.3787   3.5583   3.7410   4.3309   4.3996
     4.5434   4.7454   4.9756   5.3354   5.6488   5.9724   6.1884   6.5024
[...]
     1.0000   1.0000   1.0000   1.0000   1.0000   1.0000   1.0000   1.0000
     1.0000   1.0000   1.0000   0.0000   0.0000   0.0000   0.0000   0.0000
     0.0000   0.0000   0.0000   0.0000   0.0000   0.0000   0.0000   0.0000
     0.0000   0.0000

          k = 0.4165 0.2050 0.0814 ( 19350 PWs)   bands (ev):

   -91.7159 -64.2900 -64.2861 -64.2728 -52.1586 -52.1481 -52.1390 -33.0932
   -33.0812 -33.0702 -28.7058 -28.6580 -28.6317 -28.5704 -28.5417 -28.4969
    -8.0893  -7.4218  -7.2346  -6.9406  -6.8156  -6.5640  -6.5130  -6.2960
     3.6636   3.9891   4.2787   4.5324   4.7357   4.8793   5.1375   5.2577
     5.3863   5.7460   6.0170   6.1749   6.4892   6.7833   6.8867   7.2040
     7.3576   7.6239   7.7574   8.2330   8.3404   8.4888   8.5521   8.6456
     8.9348   9.2564   9.5538  13.1074  13.3903  13.5679  13.8991  14.0109
    14.5763  15.1161  15.3540  16.3523  16.4102  16.5590  17.2199  17.3238
    17.6682  17.9547

     occupation numbers 
     1.0000   1.0000   1.0000   1.0000   1.0000   1.0000   1.0000   1.0000
     1.0000   1.0000   1.0000   1.0000   1.0000   1.0000   1.0000   1.0000
     1.0000   1.0000   1.0000   1.0000   1.0000   1.0000   1.0000   1.0000
     1.0000   1.0000   1.0000   1.0000   1.0000   1.0000   1.0000   1.0000
     1.0000   1.0000   1.0000   1.0000   1.0000   1.0000   1.0000   1.0000
     1.0000   1.0000   1.0000   1.0000   1.0000   1.0000   1.0000   1.0000
     1.0000   1.0000   1.0000   0.0000   0.0000   0.0000   0.0000   0.0000
     0.0000   0.0000   0.0000   0.0000   0.0000   0.0000   0.0000   0.0000
     0.0000   0.0000

          k = 0.4162 0.2050 0.2375 ( 19351 PWs)   bands (ev):

   -91.7158 -64.2900 -64.2854 -64.2734 -52.1586 -52.1481 -52.1390 -33.0933
   -33.0812 -33.0703 -28.7071 -28.6674 -28.6235 -28.5813 -28.5347 -28.4910
    -7.9333  -7.4503  -7.2110  -7.0547  -6.8427  -6.6034  -6.4866  -6.2988
     3.6931   4.0444   4.3414   4.5400   4.6401   4.7859   4.9827   5.1475
     5.3562   5.8338   5.9493   6.2278   6.4334   6.7549   7.0517   7.2978
     7.5412   7.6798   7.8670   8.1779   8.3377   8.4568   8.5450   8.6634
     8.8872   9.2343   9.4816  13.1049  13.3863  13.6420  13.8985  13.9853
    14.5021  15.0992  15.3816  16.2624  16.4176  16.5504  17.1156  17.2831
    17.6240  17.9962

     occupation numbers 
     1.0000   1.0000   1.0000   1.0000   1.0000   1.0000   1.0000   1.0000
     1.0000   1.0000   1.0000   1.0000   1.0000   1.0000   1.0000   1.0000
     1.0000   1.0000   1.0000   1.0000   1.0000   1.0000   1.0000   1.0000
     1.0000   1.0000   1.0000   1.0000   1.0000   1.0000   1.0000   1.0000
     1.0000   1.0000   1.0000   1.0000   1.0000   1.0000   1.0000   1.0000
     1.0000   1.0000   1.0000   1.0000   1.0000   1.0000   1.0000   1.0000
     1.0000   1.0000   1.0000   0.0000   0.0000   0.0000   0.0000   0.0000
     0.0000   0.0000   0.0000   0.0000   0.0000   0.0000   0.0000   0.0000
     0.0000   0.0000

          k = 0.4159 0.2050 0.3936 ( 19353 PWs)   bands (ev):

   -91.7158 -64.2900 -64.2845 -64.2741 -52.1586 -52.1481 -52.1390 -33.0933
   -33.0812 -33.0703 -28.7072 -28.6767 -28.6123 -28.5950 -28.5285 -28.4861
    -7.6788  -7.4586  -7.2815  -7.1486  -6.8814  -6.7317  -6.4282  -6.2844
     3.8005   4.1403   4.2043   4.3365   4.5062   4.7170   5.0817   5.2589
     5.5834   5.7232   5.9837   6.3271   6.4949   6.6837   6.9092   7.2343
     7.3628   7.7927   8.0055   8.0826   8.3943   8.5546   8.6033   8.7379
     8.8881   9.1542   9.4648  13.1582  13.3135  13.6181  13.8573  14.0794
    14.3177  15.1515  15.3441  16.2456  16.4132  16.4820  17.0552  17.2428
    17.6473  17.7787

     occupation numbers 
     1.0000   1.0000   1.0000   1.0000   1.0000   1.0000   1.0000   1.0000
     1.0000   1.0000   1.0000   1.0000   1.0000   1.0000   1.0000   1.0000
     1.0000   1.0000   1.0000   1.0000   1.0000   1.0000   1.0000   1.0000
     1.0000   1.0000   1.0000   1.0000   1.0000   1.0000   1.0000   1.0000
     1.0000   1.0000   1.0000   1.0000   1.0000   1.0000   1.0000   1.0000
     1.0000   1.0000   1.0000   1.0000   1.0000   1.0000   1.0000   1.0000
     1.0000   1.0000   1.0000   0.0000   0.0000   0.0000   0.0000   0.0000
     0.0000   0.0000   0.0000   0.0000   0.0000   0.0000   0.0000   0.0000
     0.0000   0.0000

          k = 0.4174 0.2050-0.3870 ( 19347 PWs)   bands (ev):

   -91.7158 -64.2900 -64.2844 -64.2740 -52.1586 -52.1481 -52.1390 -33.0934
   -33.0812 -33.0703 -28.7072 -28.6767 -28.6122 -28.5952 -28.5284 -28.4861
    -7.6893  -7.4265  -7.2721  -7.1218  -6.8738  -6.8140  -6.4309  -6.2719
     3.8658   4.0538   4.1970   4.3548   4.4936   4.8067   5.0665   5.3854
     5.5315   5.6622   5.9563   6.3284   6.5867   6.6842   6.8444   7.1529
     7.4160   7.7642   7.9487   8.1753   8.3427   8.4750   8.6361   8.7607
     8.8969   9.1447   9.5038  13.1300  13.3321  13.5391  13.8667  14.0738
    14.2830  15.2158  15.2718  16.3098  16.3708  16.4760  17.0966  17.2830
    17.6318  17.8044

     occupation numbers 
     1.0000   1.0000   1.0000   1.0000   1.0000   1.0000   1.0000   1.0000
     1.0000   1.0000   1.0000   1.0000   1.0000   1.0000   1.0000   1.0000
     1.0000   1.0000   1.0000   1.0000   1.0000   1.0000   1.0000   1.0000
     1.0000   1.0000   1.0000   1.0000   1.0000   1.0000   1.0000   1.0000
     1.0000   1.0000   1.0000   1.0000   1.0000   1.0000   1.0000   1.0000
     1.0000   1.0000   1.0000   1.0000   1.0000   1.0000   1.0000   1.0000
     1.0000   1.0000   1.0000   0.0000   0.0000   0.0000   0.0000   0.0000
     0.0000   0.0000   0.0000   0.0000   0.0000   0.0000   0.0000   0.0000
     0.0000   0.0000

          k = 0.4171 0.2050-0.2309 ( 19348 PWs)   bands (ev):

   -91.7158 -64.2900 -64.2853 -64.2733 -52.1586 -52.1481 -52.1390 -33.0933
   -33.0812 -33.0702 -28.7071 -28.6675 -28.6234 -28.5816 -28.5346 -28.4910
    -7.9377  -7.4066  -7.1357  -7.0488  -6.9293  -6.6841  -6.4674  -6.2854
     3.7356   4.0966   4.2478   4.4869   4.5897   4.8858   5.0458   5.3211
     5.4808   5.6419   5.9557   6.2702   6.4602   6.6260   7.0494   7.1723
     7.5454   7.7174   7.8988   8.0786   8.2718   8.4280   8.6051   8.7206
     8.8408   9.3035   9.4926  13.0881  13.3721  13.5133  13.8466  14.0128
    14.4488  15.1909  15.2769  16.3359  16.3785  16.5465  17.1434  17.3523
    17.6532  18.0783

     occupation numbers 
     1.0000   1.0000   1.0000   1.0000   1.0000   1.0000   1.0000   1.0000
     1.0000   1.0000   1.0000   1.0000   1.0000   1.0000   1.0000   1.0000
     1.0000   1.0000   1.0000   1.0000   1.0000   1.0000   1.0000   1.0000
     1.0000   1.0000   1.0000   1.0000   1.0000   1.0000   1.0000   1.0000
     1.0000   1.0000   1.0000   1.0000   1.0000   1.0000   1.0000   1.0000
     1.0000   1.0000   1.0000   1.0000   1.0000   1.0000   1.0000   1.0000
     1.0000   1.0000   1.0000   0.0000   0.0000   0.0000   0.0000   0.0000
     0.0000   0.0000   0.0000   0.0000   0.0000   0.0000   0.0000   0.0000
     0.0000   0.0000

          k = 0.4168 0.2050-0.0748 ( 19345 PWs)   bands (ev):

   -91.7159 -64.2900 -64.2861 -64.2728 -52.1586 -52.1481 -52.1390 -33.0932
   -33.0812 -33.0702 -28.7058 -28.6580 -28.6316 -28.5705 -28.5416 -28.4970
    -8.0902  -7.4051  -7.1912  -6.9531  -6.8687  -6.5834  -6.4920  -6.2981
     3.6783   3.9979   4.2862   4.5301   4.6807   4.8554   5.1207   5.3574
     5.5294   5.7734   5.9945   6.1805   6.4513   6.6180   6.9531   7.1138
     7.3724   7.6539   7.7592   8.1747   8.3661   8.4316   8.5727   8.7035
     8.8977   9.3371   9.5232  13.1239  13.3230  13.5634  13.8331  14.0423
    14.5460  15.1694  15.2958  16.3636  16.4147  16.5576  17.1756  17.3867
    17.7363  18.0389

     occupation numbers 
     1.0000   1.0000   1.0000   1.0000   1.0000   1.0000   1.0000   1.0000
     1.0000   1.0000   1.0000   1.0000   1.0000   1.0000   1.0000   1.0000
     1.0000   1.0000   1.0000   1.0000   1.0000   1.0000   1.0000   1.0000
     1.0000   1.0000   1.0000   1.0000   1.0000   1.0000   1.0000   1.0000
     1.0000   1.0000   1.0000   1.0000   1.0000   1.0000   1.0000   1.0000
     1.0000   1.0000   1.0000   1.0000   1.0000   1.0000   1.0000   1.0000
     1.0000   1.0000   1.0000   0.0000   0.0000   0.0000   0.0000   0.0000
     0.0000   0.0000   0.0000   0.0000   0.0000   0.0000   0.0000   0.0000
     0.0000   0.0000

          k = 0.4165 0.3416 0.0814 ( 19334 PWs)   bands (ev):

   -91.7159 -64.2900 -64.2860 -64.2728 -52.1586 -52.1481 -52.1390 -33.0932
   -33.0813 -33.0702 -28.7054 -28.6570 -28.6312 -28.5708 -28.5431 -28.4973
    -8.0110  -7.5037  -7.2349  -6.9280  -6.8528  -6.5864  -6.4663  -6.3033
     3.5195   4.0267   4.2924   4.5124   4.8744   5.0188   5.1895   5.3564
     5.5121   5.7470   6.0863   6.2949   6.4758   6.5565   6.8175   6.9974
     7.3230   7.5508   7.6370   8.0513   8.3057   8.5141   8.6290   8.7445
     8.9970   9.2056   9.4950  13.0318  13.4446  13.6403  13.7696  14.0519
    14.6756  15.1064  15.3222  16.3020  16.4305  16.5675  17.1963  17.2430
    17.5269  18.1774

     occupation numbers 
     1.0000   1.0000   1.0000   1.0000   1.0000   1.0000   1.0000   1.0000
     1.0000   1.0000   1.0000   1.0000   1.0000   1.0000   1.0000   1.0000
     1.0000   1.0000   1.0000   1.0000   1.0000   1.0000   1.0000   1.0000
     1.0000   1.0000   1.0000   1.0000   1.0000   1.0000   1.0000   1.0000
     1.0000   1.0000   1.0000   1.0000   1.0000   1.0000   1.0000   1.0000
     1.0000   1.0000   1.0000   1.0000   1.0000   1.0000   1.0000   1.0000
     1.0000   1.0000   1.0000   0.0000   0.0000   0.0000   0.0000   0.0000
     0.0000   0.0000   0.0000   0.0000   0.0000   0.0000   0.0000   0.0000
     0.0000   0.0000

          k = 0.4162 0.3416 0.2375 ( 19330 PWs)   bands (ev):

   -91.7158 -64.2900 -64.2852 -64.2734 -52.1586 -52.1481 -52.1390 -33.0933
   -33.0812 -33.0703 -28.7075 -28.6675 -28.6229 -28.5818 -28.5350 -28.4906
    -7.8808  -7.5282  -7.2138  -7.0337  -6.7591  -6.6551  -6.4959  -6.3241
     3.5653   4.0301   4.2554   4.5931   4.8172   4.8574   5.0390   5.2752
     5.5443   5.8708   6.0531   6.1000   6.3869   6.5642   6.9404   7.3401
     7.4997   7.6347   7.9041   8.1872   8.2525   8.3892   8.5283   8.6716
     8.8839   9.1499   9.4246  13.0997  13.4266  13.7044  13.7970  13.9284
    14.5440  15.1094  15.3759  16.2090  16.4434  16.5125  17.0867  17.2744
    17.5022  18.0665

     occupation numbers 
     1.0000   1.0000   1.0000   1.0000   1.0000   1.0000   1.0000   1.0000
     1.0000   1.0000   1.0000   1.0000   1.0000   1.0000   1.0000   1.0000
     1.0000   1.0000   1.0000   1.0000   1.0000   1.0000   1.0000   1.0000
     1.0000   1.0000   1.0000   1.0000   1.0000   1.0000   1.0000   1.0000
     1.0000   1.0000   1.0000   1.0000   1.0000   1.0000   1.0000   1.0000
     1.0000   1.0000   1.0000   1.0000   1.0000   1.0000   1.0000   1.0000
     1.0000   1.0000   1.0000   0.0000   0.0000   0.0000   0.0000   0.0000
     0.0000   0.0000   0.0000   0.0000   0.0000   0.0000   0.0000   0.0000
     0.0000   0.0000

          k = 0.4159 0.3416 0.3936 ( 19333 PWs)   bands (ev):

   -91.7158 -64.2900 -64.2844 -64.2740 -52.1586 -52.1481 -52.1390 -33.0934
   -33.0812 -33.0703 -28.7083 -28.6776 -28.6120 -28.5952 -28.5277 -28.4851
    -7.6833  -7.5107  -7.2698  -7.1203  -6.7846  -6.7074  -6.4772  -6.3474
     3.7336   4.0398   4.1784   4.3529   4.6272   4.8811   5.0808   5.2980
     5.6825   5.8035   5.9771   6.1063   6.5101   6.7327   6.9914   7.1869
     7.5464   7.8466   7.9204   8.0580   8.3197   8.4513   8.5766   8.6579
     8.7830   9.0824   9.4109  13.2165  13.3922  13.5040  13.7784  14.0329
    14.3364  15.1319  15.3607  16.1727  16.4048  16.4209  17.0484  17.2296
    17.6127  17.8964

     occupation numbers 
     1.0000   1.0000   1.0000   1.0000   1.0000   1.0000   1.0000   1.0000
     1.0000   1.0000   1.0000   1.0000   1.0000   1.0000   1.0000   1.0000
     1.0000   1.0000   1.0000   1.0000   1.0000   1.0000   1.0000   1.0000
     1.0000   1.0000   1.0000   1.0000   1.0000   1.0000   1.0000   1.0000
     1.0000   1.0000   1.0000   1.0000   1.0000   1.0000   1.0000   1.0000
     1.0000   1.0000   1.0000   1.0000   1.0000   1.0000   1.0000   1.0000
     1.0000   1.0000   1.0000   0.0000   0.0000   0.0000   0.0000   0.0000
     0.0000   0.0000   0.0000   0.0000   0.0000   0.0000   0.0000   0.0000
     0.0000   0.0000

          k = 0.4174 0.3416-0.3870 ( 19349 PWs)   bands (ev):

   -91.7158 -64.2900 -64.2843 -64.2740 -52.1586 -52.1481 -52.1390 -33.0934
   -33.0812 -33.0703 -28.7083 -28.6776 -28.6120 -28.5953 -28.5276 -28.4852
    -7.6795  -7.4546  -7.3061  -7.1153  -6.8099  -6.7354  -6.4894  -6.3168
     3.8673   3.9813   4.2142   4.3189   4.5278   4.9002   5.0860   5.3832
     5.5841   5.7013   6.0741   6.1394   6.5262   6.8000   6.9048   7.3178
     7.5830   7.7850   7.8592   7.9979   8.2566   8.4483   8.5695   8.6423
     8.8529   9.0717   9.4693  13.1786  13.3778  13.4786  13.7556  14.0906
    14.2392  15.1803  15.2832  16.2208  16.3486  16.4415  17.0748  17.2543
    17.7289  17.8317

     occupation numbers 
     1.0000   1.0000   1.0000   1.0000   1.0000   1.0000   1.0000   1.0000
     1.0000   1.0000   1.0000   1.0000   1.0000   1.0000   1.0000   1.0000
     1.0000   1.0000   1.0000   1.0000   1.0000   1.0000   1.0000   1.0000
     1.0000   1.0000   1.0000   1.0000   1.0000   1.0000   1.0000   1.0000
     1.0000   1.0000   1.0000   1.0000   1.0000   1.0000   1.0000   1.0000
     1.0000   1.0000   1.0000   1.0000   1.0000   1.0000   1.0000   1.0000
     1.0000   1.0000   1.0000   0.0000   0.0000   0.0000   0.0000   0.0000
     0.0000   0.0000   0.0000   0.0000   0.0000   0.0000   0.0000   0.0000
     0.0000   0.0000

          k = 0.4171 0.3416-0.2309 ( 19319 PWs)   bands (ev):

   -91.7158 -64.2900 -64.2852 -64.2734 -52.1586 -52.1481 -52.1390 -33.0933
   -33.0813 -33.0702 -28.7075 -28.6675 -28.6229 -28.5820 -28.5349 -28.4907
    -7.8701  -7.4751  -7.1875  -7.0355  -6.8924  -6.6856  -6.4607  -6.2962
     3.6562   4.1384   4.3059   4.4343   4.6228   4.8783   5.0371   5.4442
     5.6719   5.7106   5.9052   6.1772   6.5050   6.5693   7.0348   7.2205
     7.6029   7.6959   7.8141   8.0223   8.1886   8.3636   8.4870   8.7352
     8.8994   9.2307   9.4508  13.0244  13.4309  13.6085  13.8124  13.9240
    14.4426  15.1680  15.2543  16.2663  16.3939  16.5239  17.0847  17.3346
    17.6948  18.0476

     occupation numbers 
     1.0000   1.0000   1.0000   1.0000   1.0000   1.0000   1.0000   1.0000
     1.0000   1.0000   1.0000   1.0000   1.0000   1.0000   1.0000   1.0000
     1.0000   1.0000   1.0000   1.0000   1.0000   1.0000   1.0000   1.0000
     1.0000   1.0000   1.0000   1.0000   1.0000   1.0000   1.0000   1.0000
     1.0000   1.0000   1.0000   1.0000   1.0000   1.0000   1.0000   1.0000
     1.0000   1.0000   1.0000   1.0000   1.0000   1.0000   1.0000   1.0000
     1.0000   1.0000   1.0000   0.0000   0.0000   0.0000   0.0000   0.0000
     0.0000   0.0000   0.0000   0.0000   0.0000   0.0000   0.0000   0.0000
     0.0000   0.0000

          k = 0.4168 0.3416-0.0748 ( 19327 PWs)   bands (ev):

   -91.7159 -64.2900 -64.2859 -64.2728 -52.1586 -52.1481 -52.1390 -33.0932
   -33.0813 -33.0702 -28.7054 -28.6569 -28.6312 -28.5710 -28.5430 -28.4973
    -8.0063  -7.4870  -7.1860  -6.9686  -6.9102  -6.5913  -6.4491  -6.2941
     3.5514   4.0531   4.3814   4.4878   4.7097   4.9120   5.2218   5.4397
     5.6201   5.8501   6.0048   6.2441   6.4929   6.5284   6.7572   7.0788
     7.3359   7.5324   7.6429   8.0171   8.2353   8.5051   8.6460   8.7942
     8.9514   9.2986   9.4560  12.9931  13.4324  13.6547  13.7487  14.0416
    14.6231  15.1250  15.2705  16.3167  16.4262  16.5645  17.1043  17.3915
    17.5946  18.2036

     occupation numbers 
     1.0000   1.0000   1.0000   1.0000   1.0000   1.0000   1.0000   1.0000
     1.0000   1.0000   1.0000   1.0000   1.0000   1.0000   1.0000   1.0000
     1.0000   1.0000   1.0000   1.0000   1.0000   1.0000   1.0000   1.0000
     1.0000   1.0000   1.0000   1.0000   1.0000   1.0000   1.0000   1.0000
     1.0000   1.0000   1.0000   1.0000   1.0000   1.0000   1.0000   1.0000
     1.0000   1.0000   1.0000   1.0000   1.0000   1.0000   1.0000   1.0000
     1.0000   1.0000   1.0000   0.0000   0.0000   0.0000   0.0000   0.0000
     0.0000   0.0000   0.0000   0.0000   0.0000   0.0000   0.0000   0.0000
     0.0000   0.0000

     the Fermi energy is    11.9606 ev

!    total energy              =   -1120.12343995 Ry
     estimated scf accuracy    <          8.7E-10 Ry
     smearing contrib. (-TS)   =       0.00000000 Ry
     internal energy E=F+TS    =   -1120.12343995 Ry

     The total energy is F=E-TS. E is the sum of the following terms:
     one-electron contribution =    -492.71893422 Ry
     hartree contribution      =     303.40531361 Ry
     xc contribution           =    -210.64209940 Ry
     ewald contribution        =    -720.28670323 Ry
     Hubbard energy            =       0.11898328 Ry

     total magnetization       =     7.00 Bohr mag/cell
     absolute magnetization    =     7.03 Bohr mag/cell

     convergence has been achieved in  16 iterations

     Writing all to output data dir ./tmp/MnNiWO4_FM/MnNiWO4_FM.save/ :
     XML data file, charge density
     init_run     :      4.11s CPU      4.21s WALL (       1 calls)
     electrons    :    169.95s CPU    171.88s WALL (       1 calls)

     Called by init_run:
     wfcinit      :      4.05s CPU      4.14s WALL (       1 calls)
     wfcinit:atom :      0.02s CPU      0.03s WALL (     108 calls)
     wfcinit:wfcr :      3.16s CPU      3.23s WALL (     108 calls)
     potinit      :      0.01s CPU      0.02s WALL (       1 calls)
     hinit0       :      0.01s CPU      0.02s WALL (       1 calls)

     Called by electrons:
     c_bands      :    152.50s CPU    154.10s WALL (      16 calls)
     sum_band     :     17.10s CPU     17.35s WALL (      16 calls)
     v_of_rho     :      0.15s CPU      0.16s WALL (      17 calls)
     v_h          :      0.00s CPU      0.00s WALL (      17 calls)
     v_xc         :      0.15s CPU      0.15s WALL (      17 calls)
     mix_rho      :      0.19s CPU      0.19s WALL (      16 calls)

     Called by c_bands:
     init_us_2    :      2.58s CPU      2.66s WALL (    3672 calls)
     cegterg      :    141.06s CPU    142.48s WALL (    1728 calls)

     Called by sum_band:
     sum_band:wei :      0.11s CPU      0.12s WALL (      16 calls)
     sum_band:loo :     16.07s CPU     16.28s WALL (      16 calls)
     sum_band:buf :      0.22s CPU      0.22s WALL (    1728 calls)
     sum_band:ini :      0.78s CPU      0.79s WALL (    1728 calls)

     Called by *egterg:
     cdiaghg      :     22.51s CPU     22.63s WALL (    7174 calls)
     cegterg:over :      7.09s CPU      7.14s WALL (    5446 calls)
     cegterg:upda :      3.83s CPU      3.86s WALL (    5446 calls)
     cegterg:last :      7.29s CPU      7.34s WALL (    3558 calls)
     h_psi        :     98.90s CPU    100.11s WALL (    7282 calls)
     g_psi        :      0.32s CPU      0.32s WALL (    5446 calls)

     Called by h_psi:
     h_psi:calbec :     11.42s CPU     11.52s WALL (    7282 calls)
     vloc_psi     :     73.31s CPU     74.33s WALL (    7282 calls)
     add_vuspsi   :     10.27s CPU     10.34s WALL (    7282 calls)
     vhpsi        :      3.39s CPU      3.42s WALL (    7282 calls)

     General routines
     calbec       :     15.14s CPU     15.28s WALL (   16400 calls)
     fft          :      0.06s CPU      0.07s WALL (     321 calls)
     ffts         :      0.10s CPU      0.11s WALL (     513 calls)
     fftw         :     82.67s CPU     83.80s WALL (  694870 calls)
 
     Parallel routines

     Hubbard U routines
     new_ns       :      0.89s CPU      0.93s WALL (      16 calls)
     vhpsi        :      3.39s CPU      3.42s WALL (    7282 calls)
 
     PWSCF        :   2m54.12s CPU   2m56.33s WALL

 
   This run was terminated on:   8:56: 8   9Mar2026            

=------------------------------------------------------------------------------=
   JOB DONE.
=------------------------------------------------------------------------------=
