
     Program PWSCF v.7.4.1 starts on  9Mar2026 at  8:53:12 
        Git branch: heads/qe-7.4.1
        Last git commit: 500de340b820e1cb8c05f2d8bb8fced102f377c1-dirty
        Last git commit date: Fri Feb 7 14:59:05 2025 +0000
        Last git commit subject: Merge branch 'qe-7.4.1' into 'master'

     This program is part of the open-source Quantum ESPRESSO suite
     for quantum simulation of materials; please cite
         "P. Giannozzi et al., J. Phys.:Condens. Matter 21 395502 (2009);
         "P. Giannozzi et al., J. Phys.:Condens. Matter 29 465901 (2017);
         "P. Giannozzi et al., J. Chem. Phys. 152 154105 (2020);
          URL http://www.quantum-espresso.org", 
     in publications or presentations arising from this work. More details at
     http://www.quantum-espresso.org/quote

     Parallel version (MPI), running on    24 processors

     MPI processes distributed on     1 nodes
     677444 MiB available memory on the printing compute node when the environment starts
 
     Reading input from inputs_FM/MnCoWO4_FM.in

     Current dimensions of program PWSCF are:
     Max number of different atomic species (ntypx) = 10
     Max number of k-points (npk) =  40000
     Max angular momentum in pseudopotentials (lmaxx) =  4
     Message from routine setup:
     using ibrav=0 with symmetry is DISCOURAGED, use correct ibrav instead
 
     R & G space division:  proc/nbgrp/npool/nimage =      24
     Subspace diagonalization in iterative solution of the eigenvalue problem:
     a serial algorithm will be used

 
     Parallelization info
     --------------------
     sticks:   dense  smooth     PW     G-vecs:    dense   smooth      PW
     Min         145     145     39                 6336     6336     898
     Max         146     146     40                 6342     6342     902
     Sum        3497    3497    949               152147   152147   21597
 
     Using Slab Decomposition
 


     bravais-lattice index     =            0
     lattice parameter (alat)  =       8.6714  a.u.
     unit-cell volume          =     856.9309 (a.u.)^3
     number of atoms/cell      =           12
     number of atomic types    =            4
     number of electrons       =       108.00
     number of Kohn-Sham states=           65
     kinetic-energy cutoff     =     120.0000  Ry
     charge density cutoff     =     480.0000  Ry
     scf convergence threshold =      1.0E-09
     mixing beta               =       0.7000
     number of iterations used =            8  local-TF  mixing
     Exchange-correlation= PBESOL
                           (   1   4  10   8   0   0   0)
     Hubbard projectors: ortho-atomic
     Hubbard parameters of DFT+U (Dudarev formulation) in eV:
     U(Mn-3d) =  4.6500
     U(Co-3d) =  7.8400

     Internal variables: lda_plus_u = T, lda_plus_u_kind = 0

     celldm(1)=   8.671393  celldm(2)=   0.000000  celldm(3)=   0.000000
     celldm(4)=   0.000000  celldm(5)=   0.000000  celldm(6)=   0.000000

     crystal axes: (cart. coord. in units of alat)
               a(1) = (   0.999997   0.000000  -0.002446 )  
               a(2) = (   0.000000   1.222202   0.000000 )  
               a(3) = (  -0.013088   0.000000   1.075351 )  

     reciprocal axes: (cart. coord. in units 2 pi/alat)
               b(1) = (  1.000033  0.000000  0.012172 )  
               b(2) = (  0.000000  0.818195  0.000000 )  
               b(3) = (  0.002274  0.000000  0.929956 )  


     PseudoPot. # 1 for Mn read from file:
     pseudo_dojo_pbesol/Mn.upf
     MD5 check sum: ef44e22c4884c1dd3870421f9f7ffd72
     Pseudo is Norm-conserving + core correction, Zval = 15.0
     Generated using ONCVPSP code by D. R. Hamann
     Using radial grid of 1448 points,  6 beta functions with: 
                l(1) =   0
                l(2) =   0
                l(3) =   1
                l(4) =   1
                l(5) =   2
                l(6) =   2

     PseudoPot. # 2 for Co read from file:
     pseudo_dojo_pbesol/Co.upf
     MD5 check sum: da2f8eda8ae963674925720b0359a264
     Pseudo is Norm-conserving + core correction, Zval = 17.0
     Generated using ONCVPSP code by D. R. Hamann
     Using radial grid of 1388 points,  6 beta functions with: 
                l(1) =   0
                l(2) =   0
                l(3) =   1
                l(4) =   1
                l(5) =   2
                l(6) =   2

     PseudoPot. # 3 for W  read from file:
     pseudo_dojo_pbesol/W.upf
     MD5 check sum: b5ac44390825a9169ccdba7091ec60d0
     Pseudo is Norm-conserving + core correction, Zval = 14.0
     Generated using ONCVPSP code by D. R. Hamann
     Using radial grid of 1396 points,  8 beta functions with: 
                l(1) =   0
                l(2) =   0
                l(3) =   1
                l(4) =   1
                l(5) =   2
                l(6) =   2
                l(7) =   3
                l(8) =   3

     PseudoPot. # 4 for O  read from file:
     pseudo_dojo_pbesol/O.upf
     MD5 check sum: f226cbcd508cec715ff87a8f75a1dfba
     Pseudo is Norm-conserving + core correction, Zval =  6.0
     Generated using ONCVPSP code by D. R. Hamann
     Using radial grid of  936 points,  5 beta functions with: 
                l(1) =   0
                l(2) =   0
                l(3) =   1
                l(4) =   1
                l(5) =   2

     atomic species   valence    mass     pseudopotential
     Mn               15.00    54.93805     Mn( 1.00)
     Co               17.00    58.93319     Co( 1.00)
     W                14.00   183.84000     W ( 1.00)
     O                 6.00    15.99940     O ( 1.00)

     Starting magnetic structure 
     atomic species   magnetization
     Mn              0.200
     Co              0.200
     W               0.000
     O               0.000

      2 Sym. Ops. (no inversion) found ( 1 have fractional translation)


                                    s                        frac. trans.

      isym =  1     identity                                     

 cryst.   s( 1) = (     1          0          0      )
                  (     0          1          0      )
                  (     0          0          1      )

 cart.    s( 1) = (  1.0000000  0.0000000  0.0000000 )
                  (  0.0000000  1.0000000  0.0000000 )
                  ( -0.0000000  0.0000000  1.0000000 )


      isym =  2     180 deg rotation - cart. axis [0,1,0]        

 cryst.   s( 2) = (    -1          0          0      )    f =( -0.0000000 )
                  (     0          1          0      )       (  0.0000000 )
                  (     0          0         -1      )       (  0.5000000 )

 cart.    s( 2) = ( -1.0000000  0.0000000 -0.0000000 )    f =( -0.0065442 )
                  (  0.0000000  1.0000000  0.0000000 )       (  0.0000000 )
                  (  0.0000000  0.0000000 -1.0000000 )       (  0.5376757 )


   Cartesian axes

     site n.     atom                  positions (alat units)
         1        Mn     tau(   1) = (   0.4901822   0.8246644   0.8052906  )
         2        Co     tau(   2) = (   0.4967264   0.4058206   0.2676149  )
         3        W      tau(   3) = (  -0.0098164   0.2188363   0.8065135  )
         4        W      tau(   4) = (  -0.0032721   1.0051747   0.2688378  )
         5        O      tau(   5) = (   0.2440460   0.4616412   0.9706356  )
         6        O      tau(   6) = (   0.7363183   0.4616412   0.6399456  )
         7        O      tau(   7) = (   0.7433301   0.7540147   0.1102722  )
         8        O      tau(   8) = (   0.2501226   0.7540147   0.4249577  )
         9        O      tau(   9) = (   0.2042337   1.0979789   1.0094748  )
        10        O      tau(  10) = (   0.7761306   1.0979789   0.6011064  )
        11        O      tau(  11) = (   0.7751929   0.1257233   0.0639028  )
        12        O      tau(  12) = (   0.2182598   0.1257233   0.4713271  )

   Crystallographic axes

     site n.     atom                  positions (cryst. coord.)
         1        Mn     tau(   1) = (  0.5000000  0.6747366  0.7500000  )
         2        Co     tau(   2) = (  0.5000000  0.3320405  0.2500000  )
         3        W      tau(   3) = ( -0.0000000  0.1790509  0.7500000  )
         4        W      tau(   4) = ( -0.0000000  0.8224292  0.2500000  )
         5        O      tau(   5) = (  0.2558684  0.3777127  0.9032038  )
         6        O      tau(   6) = (  0.7441316  0.3777127  0.5967962  )
         7        O      tau(   7) = (  0.7446967  0.6169313  0.1042391  )
         8        O      tau(   8) = (  0.2553033  0.6169313  0.3957609  )
         9        O      tau(   9) = (  0.2165274  0.8983612  0.9392320  )
        10        O      tau(  10) = (  0.7834726  0.8983612  0.5607680  )
        11        O      tau(  11) = (  0.7759961  0.1028662  0.0611899  )
        12        O      tau(  12) = (  0.2240039  0.1028662  0.4388101  )

     number of k points=    54  Marzari-Vanderbilt smearing, width (Ry)=  0.0200
                       cart. coord. in units 2pi/alat
        k(    1) = (   0.0835256   0.0681829   0.0785107), wk =   0.0185185
        k(    2) = (   0.0839047   0.0681829   0.2335034), wk =   0.0185185
        k(    3) = (   0.0842838   0.0681829   0.3884961), wk =   0.0185185
        k(    4) = (   0.0823884   0.0681829  -0.3864675), wk =   0.0185185
        k(    5) = (   0.0827674   0.0681829  -0.2314748), wk =   0.0185185
        k(    6) = (   0.0831465   0.0681829  -0.0764820), wk =   0.0185185
        k(    7) = (   0.0835256   0.2045488   0.0785107), wk =   0.0185185
        k(    8) = (   0.0839047   0.2045488   0.2335034), wk =   0.0185185
        k(    9) = (   0.0842838   0.2045488   0.3884961), wk =   0.0185185
        k(   10) = (   0.0823884   0.2045488  -0.3864675), wk =   0.0185185
        k(   11) = (   0.0827674   0.2045488  -0.2314748), wk =   0.0185185
        k(   12) = (   0.0831465   0.2045488  -0.0764820), wk =   0.0185185
        k(   13) = (   0.0835256   0.3409147   0.0785107), wk =   0.0185185
        k(   14) = (   0.0839047   0.3409147   0.2335034), wk =   0.0185185
        k(   15) = (   0.0842838   0.3409147   0.3884961), wk =   0.0185185
        k(   16) = (   0.0823884   0.3409147  -0.3864675), wk =   0.0185185
        k(   17) = (   0.0827674   0.3409147  -0.2314748), wk =   0.0185185
        k(   18) = (   0.0831465   0.3409147  -0.0764820), wk =   0.0185185
        k(   19) = (   0.2501977   0.0681829   0.0805393), wk =   0.0185185
        k(   20) = (   0.2505768   0.0681829   0.2355320), wk =   0.0185185
        k(   21) = (   0.2509559   0.0681829   0.3905247), wk =   0.0185185
        k(   22) = (   0.2490605   0.0681829  -0.3844389), wk =   0.0185185
        k(   23) = (   0.2494396   0.0681829  -0.2294461), wk =   0.0185185
        k(   24) = (   0.2498186   0.0681829  -0.0744534), wk =   0.0185185
        k(   25) = (   0.2501977   0.2045488   0.0805393), wk =   0.0185185
        k(   26) = (   0.2505768   0.2045488   0.2355320), wk =   0.0185185
        k(   27) = (   0.2509559   0.2045488   0.3905247), wk =   0.0185185
        k(   28) = (   0.2490605   0.2045488  -0.3844389), wk =   0.0185185
        k(   29) = (   0.2494396   0.2045488  -0.2294461), wk =   0.0185185
        k(   30) = (   0.2498186   0.2045488  -0.0744534), wk =   0.0185185
        k(   31) = (   0.2501977   0.3409147   0.0805393), wk =   0.0185185
        k(   32) = (   0.2505768   0.3409147   0.2355320), wk =   0.0185185
        k(   33) = (   0.2509559   0.3409147   0.3905247), wk =   0.0185185
        k(   34) = (   0.2490605   0.3409147  -0.3844389), wk =   0.0185185
        k(   35) = (   0.2494396   0.3409147  -0.2294461), wk =   0.0185185
        k(   36) = (   0.2498186   0.3409147  -0.0744534), wk =   0.0185185
        k(   37) = (   0.4168699   0.0681829   0.0825679), wk =   0.0185185
        k(   38) = (   0.4172489   0.0681829   0.2375606), wk =   0.0185185
        k(   39) = (   0.4176280   0.0681829   0.3925533), wk =   0.0185185
        k(   40) = (   0.4157326   0.0681829  -0.3824102), wk =   0.0185185
        k(   41) = (   0.4161117   0.0681829  -0.2274175), wk =   0.0185185
        k(   42) = (   0.4164908   0.0681829  -0.0724248), wk =   0.0185185
        k(   43) = (   0.4168699   0.2045488   0.0825679), wk =   0.0185185
        k(   44) = (   0.4172489   0.2045488   0.2375606), wk =   0.0185185
        k(   45) = (   0.4176280   0.2045488   0.3925533), wk =   0.0185185
        k(   46) = (   0.4157326   0.2045488  -0.3824102), wk =   0.0185185
        k(   47) = (   0.4161117   0.2045488  -0.2274175), wk =   0.0185185
        k(   48) = (   0.4164908   0.2045488  -0.0724248), wk =   0.0185185
        k(   49) = (   0.4168699   0.3409147   0.0825679), wk =   0.0185185
        k(   50) = (   0.4172489   0.3409147   0.2375606), wk =   0.0185185
        k(   51) = (   0.4176280   0.3409147   0.3925533), wk =   0.0185185
        k(   52) = (   0.4157326   0.3409147  -0.3824102), wk =   0.0185185
        k(   53) = (   0.4161117   0.3409147  -0.2274175), wk =   0.0185185
        k(   54) = (   0.4164908   0.3409147  -0.0724248), wk =   0.0185185

                       cryst. coord.
        k(    1) = (   0.0833333   0.0833333   0.0833333), wk =   0.0185185
        k(    2) = (   0.0833333   0.0833333   0.2500000), wk =   0.0185185
        k(    3) = (   0.0833333   0.0833333   0.4166667), wk =   0.0185185
        k(    4) = (   0.0833333   0.0833333  -0.4166667), wk =   0.0185185
        k(    5) = (   0.0833333   0.0833333  -0.2500000), wk =   0.0185185
        k(    6) = (   0.0833333   0.0833333  -0.0833333), wk =   0.0185185
        k(    7) = (   0.0833333   0.2500000   0.0833333), wk =   0.0185185
        k(    8) = (   0.0833333   0.2500000   0.2500000), wk =   0.0185185
        k(    9) = (   0.0833333   0.2500000   0.4166667), wk =   0.0185185
        k(   10) = (   0.0833333   0.2500000  -0.4166667), wk =   0.0185185
        k(   11) = (   0.0833333   0.2500000  -0.2500000), wk =   0.0185185
        k(   12) = (   0.0833333   0.2500000  -0.0833333), wk =   0.0185185
        k(   13) = (   0.0833333   0.4166667   0.0833333), wk =   0.0185185
        k(   14) = (   0.0833333   0.4166667   0.2500000), wk =   0.0185185
        k(   15) = (   0.0833333   0.4166667   0.4166667), wk =   0.0185185
        k(   16) = (   0.0833333   0.4166667  -0.4166667), wk =   0.0185185
        k(   17) = (   0.0833333   0.4166667  -0.2500000), wk =   0.0185185
        k(   18) = (   0.0833333   0.4166667  -0.0833333), wk =   0.0185185
        k(   19) = (   0.2500000   0.0833333   0.0833333), wk =   0.0185185
        k(   20) = (   0.2500000   0.0833333   0.2500000), wk =   0.0185185
        k(   21) = (   0.2500000   0.0833333   0.4166667), wk =   0.0185185
        k(   22) = (   0.2500000   0.0833333  -0.4166667), wk =   0.0185185
        k(   23) = (   0.2500000   0.0833333  -0.2500000), wk =   0.0185185
        k(   24) = (   0.2500000   0.0833333  -0.0833333), wk =   0.0185185
        k(   25) = (   0.2500000   0.2500000   0.0833333), wk =   0.0185185
        k(   26) = (   0.2500000   0.2500000   0.2500000), wk =   0.0185185
        k(   27) = (   0.2500000   0.2500000   0.4166667), wk =   0.0185185
        k(   28) = (   0.2500000   0.2500000  -0.4166667), wk =   0.0185185
        k(   29) = (   0.2500000   0.2500000  -0.2500000), wk =   0.0185185
        k(   30) = (   0.2500000   0.2500000  -0.0833333), wk =   0.0185185
        k(   31) = (   0.2500000   0.4166667   0.0833333), wk =   0.0185185
        k(   32) = (   0.2500000   0.4166667   0.2500000), wk =   0.0185185
        k(   33) = (   0.2500000   0.4166667   0.4166667), wk =   0.0185185
        k(   34) = (   0.2500000   0.4166667  -0.4166667), wk =   0.0185185
        k(   35) = (   0.2500000   0.4166667  -0.2500000), wk =   0.0185185
        k(   36) = (   0.2500000   0.4166667  -0.0833333), wk =   0.0185185
        k(   37) = (   0.4166667   0.0833333   0.0833333), wk =   0.0185185
        k(   38) = (   0.4166667   0.0833333   0.2500000), wk =   0.0185185
        k(   39) = (   0.4166667   0.0833333   0.4166667), wk =   0.0185185
        k(   40) = (   0.4166667   0.0833333  -0.4166667), wk =   0.0185185
        k(   41) = (   0.4166667   0.0833333  -0.2500000), wk =   0.0185185
        k(   42) = (   0.4166667   0.0833333  -0.0833333), wk =   0.0185185
        k(   43) = (   0.4166667   0.2500000   0.0833333), wk =   0.0185185
        k(   44) = (   0.4166667   0.2500000   0.2500000), wk =   0.0185185
        k(   45) = (   0.4166667   0.2500000   0.4166667), wk =   0.0185185
        k(   46) = (   0.4166667   0.2500000  -0.4166667), wk =   0.0185185
        k(   47) = (   0.4166667   0.2500000  -0.2500000), wk =   0.0185185
        k(   48) = (   0.4166667   0.2500000  -0.0833333), wk =   0.0185185
        k(   49) = (   0.4166667   0.4166667   0.0833333), wk =   0.0185185
        k(   50) = (   0.4166667   0.4166667   0.2500000), wk =   0.0185185
        k(   51) = (   0.4166667   0.4166667   0.4166667), wk =   0.0185185
        k(   52) = (   0.4166667   0.4166667  -0.4166667), wk =   0.0185185
        k(   53) = (   0.4166667   0.4166667  -0.2500000), wk =   0.0185185
        k(   54) = (   0.4166667   0.4166667  -0.0833333), wk =   0.0185185

     Dense  grid:   152147 G-vectors     FFT dimensions: (  64,  75,  72)

     Dynamical RAM for                 wfc:       0.79 MB

     Dynamical RAM for     wfc (w. buffer):      85.62 MB

     Dynamical RAM for             U proj.:       0.12 MB

     Dynamical RAM for  U proj. (w. buff.):      13.17 MB

     Dynamical RAM for           str. fact:       0.39 MB

     Dynamical RAM for           local pot:       0.00 MB

     Dynamical RAM for          nlocal pot:       2.47 MB

     Dynamical RAM for                qrad:      16.87 MB

     Dynamical RAM for          rho,v,vnew:       1.24 MB

     Dynamical RAM for               rhoin:       0.41 MB

     Dynamical RAM for            rho*nmix:       3.10 MB

     Dynamical RAM for           G-vectors:       0.41 MB

     Dynamical RAM for          h,s,v(r/c):       0.77 MB

     Dynamical RAM for          <psi|beta>:       0.20 MB

     Dynamical RAM for                 psi:       1.57 MB

     Dynamical RAM for                hpsi:       1.57 MB

     Dynamical RAM for      wfcinit/wfcrot:       1.67 MB

     Estimated static dynamical RAM per process >     121.73 MB

     Estimated max dynamical RAM per process >     128.94 MB

     Estimated total dynamical RAM >       3.02 GB
     Generating pointlists ...
     new r_m :   0.1836 (alat units)  1.5923 (a.u.) for type    1
     new r_m :   0.1833 (alat units)  1.5896 (a.u.) for type    2
     new r_m :   0.1599 (alat units)  1.3869 (a.u.) for type    3
     new r_m :   0.1599 (alat units)  1.3869 (a.u.) for type    4

     Initial potential from superposition of free atoms

     starting charge     107.9983, renormalised to     108.0000

     HUBBARD ENERGY =    0.3457  (Ry)

     STARTING HUBBARD OCCUPATIONS:

     =================== HUBBARD OCCUPATIONS ===================
     ------------------------ ATOM    1 ------------------------
     Tr[ns(  1)] (up, down, total) =   5.00000  0.00000  5.00000
     Atomic magnetic moment for atom   1 =   5.00000
     SPIN  1
     eigenvalues:
       1.000  1.000  1.000  1.000  1.000
     eigenvectors (columns):
       1.000  0.000  0.000  0.000  0.000
       0.000  1.000  0.000  0.000  0.000
       0.000  0.000  1.000  0.000  0.000
       0.000  0.000  0.000  1.000  0.000
       0.000  0.000  0.000  0.000  1.000
     occupation matrix ns (before diag.):
       1.000  0.000  0.000  0.000  0.000
       0.000  1.000  0.000  0.000  0.000
       0.000  0.000  1.000  0.000  0.000
       0.000  0.000  0.000  1.000  0.000
       0.000  0.000  0.000  0.000  1.000
     SPIN  2
     eigenvalues:
       0.000  0.000  0.000  0.000  0.000
     eigenvectors (columns):
       1.000  0.000  0.000  0.000  0.000
       0.000  1.000  0.000  0.000  0.000
       0.000  0.000  1.000  0.000  0.000
       0.000  0.000  0.000  1.000  0.000
       0.000  0.000  0.000  0.000  1.000
     occupation matrix ns (before diag.):
       0.000  0.000  0.000  0.000  0.000
       0.000  0.000  0.000  0.000  0.000
       0.000  0.000  0.000  0.000  0.000
       0.000  0.000  0.000  0.000  0.000
       0.000  0.000  0.000  0.000  0.000
     ------------------------ ATOM    2 ------------------------
     Tr[ns(  2)] (up, down, total) =   5.00000  2.00000  7.00000
     Atomic magnetic moment for atom   2 =   3.00000
     SPIN  1
     eigenvalues:
       1.000  1.000  1.000  1.000  1.000
     eigenvectors (columns):
       1.000  0.000  0.000  0.000  0.000
       0.000  1.000  0.000  0.000  0.000
       0.000  0.000  1.000  0.000  0.000
       0.000  0.000  0.000  1.000  0.000
       0.000  0.000  0.000  0.000  1.000
     occupation matrix ns (before diag.):
       1.000  0.000  0.000  0.000  0.000
       0.000  1.000  0.000  0.000  0.000
       0.000  0.000  1.000  0.000  0.000
       0.000  0.000  0.000  1.000  0.000
       0.000  0.000  0.000  0.000  1.000
     SPIN  2
     eigenvalues:
       0.400  0.400  0.400  0.400  0.400
     eigenvectors (columns):
       1.000  0.000  0.000  0.000  0.000
       0.000  1.000  0.000  0.000  0.000
       0.000  0.000  1.000  0.000  0.000
       0.000  0.000  0.000  1.000  0.000
       0.000  0.000  0.000  0.000  1.000
     occupation matrix ns (before diag.):
       0.400  0.000  0.000  0.000  0.000
       0.000  0.400  0.000  0.000  0.000
       0.000  0.000  0.400  0.000  0.000
       0.000  0.000  0.000  0.400  0.000
       0.000  0.000  0.000  0.000  0.400

     Number of occupied Hubbard levels =   12.0000

     Atomic wfc used for Hubbard projectors are orthogonalized

     Starting wfcs are   72 randomized atomic wfcs

     total cpu time spent up to now is        4.2 secs

     per-process dynamical memory:   171.9 Mb

     Self-consistent Calculation

     iteration #  1     ecut=   120.00 Ry     beta= 0.70
     Davidson diagonalization with overlap

---- Real-time Memory Report at c_bands before calling an iterative solver
           205 MiB given to the printing process from OS
           167 MiB allocation reported by mallinfo(arena+hblkhd)
        665268 MiB available memory on the node where the printing process lives
------------------
     ethr =  1.00E-02,  avg # of iterations =  2.0

     =================== HUBBARD OCCUPATIONS ===================
     ------------------------ ATOM    1 ------------------------
     Tr[ns(  1)] (up, down, total) =   4.96100  0.23445  5.19545
     Atomic magnetic moment for atom   1 =   4.72656
     SPIN  1
     eigenvalues:
       0.985  0.987  0.996  0.996  0.997
     eigenvectors (columns):
      -0.000  0.612 -0.000 -0.673  0.415
      -0.000 -0.761 -0.000 -0.645  0.075
       0.552 -0.000 -0.834  0.000 -0.000
       0.000  0.217 -0.000 -0.362 -0.907
       0.834  0.000  0.552 -0.000  0.000
     occupation matrix ns (before diag.):
       0.993  0.004 -0.000 -0.002  0.000
       0.004  0.991 -0.000  0.001  0.000
      -0.000 -0.000  0.993 -0.000 -0.005
      -0.002  0.001 -0.000  0.996 -0.000
       0.000  0.000 -0.005 -0.000  0.989
     SPIN  2
     eigenvalues:
       0.025  0.025  0.026  0.078  0.080
     eigenvectors (columns):
      -0.847  0.007  0.000  0.000 -0.531
      -0.517 -0.240  0.000 -0.000  0.822
      -0.000 -0.000 -0.826  0.564  0.000
       0.122 -0.971  0.000 -0.000 -0.206
       0.000  0.000  0.564  0.826  0.000
     occupation matrix ns (before diag.):
       0.040 -0.024  0.000  0.006  0.000
      -0.024  0.062 -0.000 -0.009  0.000
       0.000 -0.000  0.043 -0.000  0.024
       0.006 -0.009 -0.000  0.028 -0.000
       0.000  0.000  0.024 -0.000  0.062
     ------------------------ ATOM    2 ------------------------
     Tr[ns(  2)] (up, down, total) =   4.98485  2.19775  7.18259
     Atomic magnetic moment for atom   2 =   2.78710
     SPIN  1
     eigenvalues:
       0.995  0.995  0.998  0.998  0.999
     eigenvectors (columns):
       0.000 -0.592  0.688  0.000 -0.421
      -0.000  0.764  0.644  0.000 -0.022
       0.550  0.000  0.000 -0.835  0.000
       0.000 -0.256  0.335  0.000  0.907
       0.835  0.000 -0.000  0.550 -0.000
     occupation matrix ns (before diag.):
       0.997  0.002 -0.000 -0.001  0.000
       0.002  0.996 -0.000  0.001  0.000
      -0.000 -0.000  0.997 -0.000 -0.002
      -0.001  0.001 -0.000  0.998 -0.000
       0.000  0.000 -0.002 -0.000  0.996
     SPIN  2
     eigenvalues:
       0.113  0.115  0.562  0.690  0.719
     eigenvectors (columns):
       0.000  0.526 -0.050 -0.000  0.849
      -0.000 -0.816  0.253 -0.000  0.520
       0.570 -0.000  0.000 -0.821 -0.000
       0.000  0.241  0.966  0.000 -0.092
       0.821 -0.000 -0.000  0.570  0.000
     occupation matrix ns (before diag.):
       0.551  0.261 -0.000 -0.069  0.000
       0.261  0.307 -0.000  0.080  0.000
      -0.000 -0.000  0.502 -0.000 -0.270
      -0.069  0.080 -0.000  0.537 -0.000
       0.000  0.000 -0.270 -0.000  0.300

     Number of occupied Hubbard levels =   12.3780

     HUBBARD ENERGY =    0.2975  (Ry)

     total cpu time spent up to now is       14.5 secs

     total energy              =   -1089.48126885 Ry
     estimated scf accuracy    <       4.23971475 Ry

     total magnetization       =     8.00 Bohr mag/cell
     absolute magnetization    =     8.00 Bohr mag/cell

     iteration #  2     ecut=   120.00 Ry     beta= 0.70
     Davidson diagonalization with overlap

---- Real-time Memory Report at c_bands before calling an iterative solver
           213 MiB given to the printing process from OS
           172 MiB allocation reported by mallinfo(arena+hblkhd)
        664473 MiB available memory on the node where the printing process lives
------------------
     ethr =  3.93E-03,  avg # of iterations =  2.0

     =================== HUBBARD OCCUPATIONS ===================
     ------------------------ ATOM    1 ------------------------
     Tr[ns(  1)] (up, down, total) =   4.89300  0.29685  5.18985
     Atomic magnetic moment for atom   1 =   4.59615
     SPIN  1
     eigenvalues:
       0.939  0.970  0.994  0.995  0.995
     eigenvectors (columns):
      -0.542 -0.000 -0.823  0.000  0.171
       0.811 -0.000 -0.565  0.000 -0.151
       0.000  0.532 -0.000 -0.847  0.000
      -0.221  0.000 -0.057 -0.000 -0.974
      -0.000  0.847  0.000  0.532 -0.000
     occupation matrix ns (before diag.):
       0.978  0.024 -0.000 -0.007  0.000
       0.024  0.958 -0.000  0.010  0.000
      -0.000 -0.000  0.988 -0.000 -0.011
      -0.007  0.010 -0.000  0.992 -0.000
       0.000  0.000 -0.011 -0.000  0.977
     SPIN  2
     eigenvalues:
       0.030  0.030  0.034  0.100  0.102
     eigenvectors (columns):
      -0.000  0.849 -0.004  0.000  0.528
      -0.000  0.511 -0.248 -0.000 -0.823
      -0.823 -0.000 -0.000  0.568  0.000
       0.000 -0.135 -0.969 -0.000  0.209
       0.568  0.000 -0.000  0.823 -0.000
     occupation matrix ns (before diag.):
       0.050 -0.031  0.000  0.008  0.000
      -0.031  0.079 -0.000 -0.011  0.000
       0.000 -0.000  0.052 -0.000  0.033
       0.008 -0.011 -0.000  0.037 -0.000
       0.000  0.000  0.033 -0.000  0.077
     ------------------------ ATOM    2 ------------------------
     Tr[ns(  2)] (up, down, total) =   4.97248  2.40703  7.37951
     Atomic magnetic moment for atom   2 =   2.56544
     SPIN  1
     eigenvalues:
       0.990  0.990  0.997  0.998  0.998
     eigenvectors (columns):
       0.577 -0.000  0.799  0.000  0.168
      -0.777  0.000  0.600  0.000 -0.189
       0.000  0.505  0.000 -0.863  0.000
       0.252  0.000  0.022 -0.000 -0.967
       0.000  0.863 -0.000  0.505 -0.000
     occupation matrix ns (before diag.):
       0.995  0.003 -0.000 -0.001  0.000
       0.003  0.993 -0.000  0.002  0.000
      -0.000 -0.000  0.996 -0.000 -0.003
      -0.001  0.002 -0.000  0.997 -0.000
       0.000  0.000 -0.003 -0.000  0.992
     SPIN  2
     eigenvalues:
       0.101  0.103  0.230  0.983  0.990
     eigenvectors (columns):
      -0.000  0.529  0.059 -0.847  0.000
       0.000 -0.812 -0.257 -0.525  0.000
       0.575  0.000  0.000 -0.000 -0.818
       0.000  0.248 -0.965  0.088 -0.000
       0.818  0.000  0.000  0.000  0.575
     occupation matrix ns (before diag.):
       0.735  0.389 -0.000 -0.073  0.000
       0.389  0.354 -0.000 -0.009  0.000
      -0.000 -0.000  0.696  0.000 -0.418
      -0.073 -0.009  0.000  0.228 -0.000
       0.000  0.000 -0.418 -0.000  0.395

     Number of occupied Hubbard levels =   12.5694

     HUBBARD ENERGY =    0.2371  (Ry)

     total cpu time spent up to now is       24.6 secs

     total energy              =   -1090.37050992 Ry
     estimated scf accuracy    <       0.23513201 Ry

     total magnetization       =     7.80 Bohr mag/cell
     absolute magnetization    =     7.83 Bohr mag/cell

     iteration #  3     ecut=   120.00 Ry     beta= 0.70
     Davidson diagonalization with overlap

---- Real-time Memory Report at c_bands before calling an iterative solver
           214 MiB given to the printing process from OS
           173 MiB allocation reported by mallinfo(arena+hblkhd)
        664144 MiB available memory on the node where the printing process lives
------------------
     ethr =  2.18E-04,  avg # of iterations =  7.1

     =================== HUBBARD OCCUPATIONS ===================
     ------------------------ ATOM    1 ------------------------
     Tr[ns(  1)] (up, down, total) =   4.92443  0.28255  5.20698
     Atomic magnetic moment for atom   1 =   4.64188
     SPIN  1
     eigenvalues:
       0.970  0.971  0.994  0.995  0.995
     eigenvectors (columns):
      -0.588 -0.000  0.794  0.000 -0.157
       0.778  0.000  0.607  0.000  0.159
      -0.000  0.535  0.000 -0.845 -0.000
      -0.222  0.000  0.028 -0.000  0.975
      -0.000  0.845 -0.000  0.535  0.000
     occupation matrix ns (before diag.):
       0.986  0.011 -0.000 -0.003  0.000
       0.011  0.979 -0.000  0.004  0.000
      -0.000 -0.000  0.988 -0.000 -0.011
      -0.003  0.004 -0.000  0.994 -0.000
       0.000  0.000 -0.011 -0.000  0.978
     SPIN  2
     eigenvalues:
       0.028  0.028  0.032  0.096  0.098
     eigenvectors (columns):
      -0.000  0.848 -0.036  0.000  0.529
      -0.000  0.502 -0.266 -0.000 -0.823
      -0.821 -0.000  0.000  0.571 -0.000
       0.000 -0.171 -0.963 -0.000  0.208
       0.571  0.000 -0.000  0.821 -0.000
     occupation matrix ns (before diag.):
       0.048 -0.030  0.000  0.008  0.000
      -0.030  0.076 -0.000 -0.011  0.000
       0.000 -0.000  0.050 -0.000  0.032
       0.008 -0.011 -0.000  0.035 -0.000
       0.000  0.000  0.032 -0.000  0.074
     ------------------------ ATOM    2 ------------------------
     Tr[ns(  2)] (up, down, total) =   4.96887  2.21294  7.18181
     Atomic magnetic moment for atom   2 =   2.75592
     SPIN  1
     eigenvalues:
       0.988  0.990  0.996  0.997  0.998
     eigenvectors (columns):
      -0.602 -0.000 -0.793  0.000  0.094
       0.756  0.000 -0.604  0.000 -0.252
      -0.000  0.522 -0.000 -0.853  0.000
      -0.256  0.000  0.081 -0.000 -0.963
      -0.000  0.853  0.000  0.522 -0.000
     occupation matrix ns (before diag.):
       0.993  0.003 -0.000 -0.001  0.000
       0.003  0.992 -0.000  0.002  0.000
      -0.000 -0.000  0.995 -0.000 -0.003
      -0.001  0.002 -0.000  0.997 -0.000
       0.000  0.000 -0.003 -0.000  0.992
     SPIN  2
     eigenvalues:
       0.055  0.089  0.092  0.988  0.989
     eigenvectors (columns):
       0.033  0.540  0.000 -0.841  0.000
      -0.225 -0.816 -0.000 -0.533  0.000
      -0.000 -0.000  0.590 -0.000 -0.807
      -0.974  0.207 -0.000  0.095 -0.000
      -0.000 -0.000  0.807  0.000  0.590
     occupation matrix ns (before diag.):
       0.725  0.403 -0.000 -0.070  0.000
       0.403  0.343 -0.000 -0.053  0.000
      -0.000 -0.000  0.676  0.000 -0.427
      -0.070 -0.053  0.000  0.065 -0.000
       0.000  0.000 -0.427 -0.000  0.404

     Number of occupied Hubbard levels =   12.3888

     HUBBARD ENERGY =    0.1561  (Ry)

     total cpu time spent up to now is       36.3 secs

     total energy              =   -1090.44676059 Ry
     estimated scf accuracy    <       0.06497054 Ry

     total magnetization       =     8.00 Bohr mag/cell
     absolute magnetization    =     8.02 Bohr mag/cell

     iteration #  4     ecut=   120.00 Ry     beta= 0.70
     Davidson diagonalization with overlap

---- Real-time Memory Report at c_bands before calling an iterative solver
           215 MiB given to the printing process from OS
           173 MiB allocation reported by mallinfo(arena+hblkhd)
        664095 MiB available memory on the node where the printing process lives
------------------
     c_bands:  1 eigenvalues not converged
     c_bands:  1 eigenvalues not converged
     ethr =  6.02E-05,  avg # of iterations =  4.8

     =================== HUBBARD OCCUPATIONS ===================
     ------------------------ ATOM    1 ------------------------
     Tr[ns(  1)] (up, down, total) =   4.92392  0.27110  5.19502
     Atomic magnetic moment for atom   1 =   4.65282
     SPIN  1
     eigenvalues:
       0.970  0.970  0.994  0.995  0.995
     eigenvectors (columns):
      -0.589 -0.000 -0.791  0.000  0.165
       0.778  0.000 -0.610  0.000 -0.152
      -0.000  0.536 -0.000 -0.844  0.000
      -0.221  0.000 -0.039  0.000 -0.975
      -0.000  0.844  0.000  0.536  0.000
     occupation matrix ns (before diag.):
       0.986  0.011 -0.000 -0.003  0.000
       0.011  0.979 -0.000  0.004  0.000
      -0.000 -0.000  0.988 -0.000 -0.011
      -0.003  0.004 -0.000  0.994 -0.000
       0.000  0.000 -0.011 -0.000  0.977
     SPIN  2
     eigenvalues:
       0.027  0.027  0.031  0.093  0.094
     eigenvectors (columns):
      -0.000  0.846 -0.054  0.000  0.530
      -0.000  0.497 -0.277 -0.000 -0.822
      -0.820 -0.000  0.000  0.572 -0.000
       0.000 -0.191 -0.959 -0.000  0.208
       0.572  0.000 -0.000  0.820 -0.000
     occupation matrix ns (before diag.):
       0.046 -0.029  0.000  0.008  0.000
      -0.029  0.073 -0.000 -0.011  0.000
       0.000 -0.000  0.048 -0.000  0.031
       0.008 -0.011 -0.000  0.033 -0.000
       0.000  0.000  0.031 -0.000  0.071
     ------------------------ ATOM    2 ------------------------
     Tr[ns(  2)] (up, down, total) =   4.97101  2.19250  7.16352
     Atomic magnetic moment for atom   2 =   2.77851
     SPIN  1
     eigenvalues:
       0.989  0.991  0.996  0.997  0.998
     eigenvectors (columns):
       0.615 -0.000 -0.783  0.000 -0.092
      -0.748  0.000 -0.616  0.000  0.248
      -0.000  0.536 -0.000 -0.844 -0.000
       0.251  0.000  0.083 -0.000  0.964
       0.000  0.844  0.000  0.536 -0.000
     occupation matrix ns (before diag.):
       0.994  0.003 -0.000 -0.001  0.000
       0.003  0.992 -0.000  0.002  0.000
      -0.000 -0.000  0.995 -0.000 -0.003
      -0.001  0.002 -0.000  0.998 -0.000
       0.000  0.000 -0.003 -0.000  0.992
     SPIN  2
     eigenvalues:
       0.031  0.086  0.093  0.991  0.991
     eigenvectors (columns):
      -0.041  0.552 -0.000  0.833  0.000
       0.242 -0.803  0.000  0.544  0.000
       0.000  0.000  0.611  0.000 -0.792
       0.969  0.224 -0.000 -0.101 -0.000
       0.000  0.000  0.792 -0.000  0.611
     occupation matrix ns (before diag.):
       0.713  0.411 -0.000 -0.074  0.000
       0.411  0.351 -0.000 -0.063  0.000
      -0.000 -0.000  0.656  0.000 -0.434
      -0.074 -0.063  0.000  0.044 -0.000
       0.000  0.000 -0.434 -0.000  0.428

     Number of occupied Hubbard levels =   12.3585

     HUBBARD ENERGY =    0.1201  (Ry)

     total cpu time spent up to now is       46.5 secs

     total energy              =   -1090.45545699 Ry
     estimated scf accuracy    <       0.00779631 Ry

     total magnetization       =     8.00 Bohr mag/cell
     absolute magnetization    =     8.02 Bohr mag/cell

     iteration #  5     ecut=   120.00 Ry     beta= 0.70
     Davidson diagonalization with overlap

---- Real-time Memory Report at c_bands before calling an iterative solver
           216 MiB given to the printing process from OS
           173 MiB allocation reported by mallinfo(arena+hblkhd)
        664056 MiB available memory on the node where the printing process lives
------------------
     c_bands:  1 eigenvalues not converged
     c_bands:  1 eigenvalues not converged
     c_bands:  1 eigenvalues not converged
     c_bands:  1 eigenvalues not converged
     c_bands:  1 eigenvalues not converged
     c_bands:  1 eigenvalues not converged
     c_bands:  1 eigenvalues not converged
     c_bands:  1 eigenvalues not converged
     c_bands:  1 eigenvalues not converged
     c_bands:  1 eigenvalues not converged
     c_bands:  1 eigenvalues not converged
     c_bands:  1 eigenvalues not converged
     ethr =  7.22E-06,  avg # of iterations = 10.0

     =================== HUBBARD OCCUPATIONS ===================
     ------------------------ ATOM    1 ------------------------
     Tr[ns(  1)] (up, down, total) =   4.92253  0.26904  5.19157
     Atomic magnetic moment for atom   1 =   4.65350
     SPIN  1
     eigenvalues:
       0.969  0.970  0.994  0.994  0.995
     eigenvectors (columns):
       0.588 -0.000  0.787  0.000  0.185
      -0.778  0.000  0.614  0.000 -0.137
       0.000  0.538  0.000 -0.843  0.000
       0.221  0.000  0.063  0.000 -0.973
       0.000  0.843 -0.000  0.538 -0.000
     occupation matrix ns (before diag.):
       0.985  0.011 -0.000 -0.003  0.000
       0.011  0.979 -0.000  0.004  0.000
      -0.000 -0.000  0.987 -0.000 -0.011
      -0.003  0.004 -0.000  0.994 -0.000
       0.000  0.000 -0.011 -0.000  0.977
     SPIN  2
     eigenvalues:
       0.026  0.026  0.030  0.092  0.094
     eigenvectors (columns):
      -0.000  0.846 -0.058  0.000  0.530
      -0.000  0.496 -0.280 -0.000 -0.822
      -0.820 -0.000  0.000  0.572 -0.000
       0.000 -0.196 -0.958 -0.000  0.208
       0.572  0.000 -0.000  0.820 -0.000
     occupation matrix ns (before diag.):
       0.045 -0.029  0.000  0.008  0.000
      -0.029  0.072 -0.000 -0.010  0.000
       0.000 -0.000  0.048 -0.000  0.031
       0.008 -0.010 -0.000  0.033 -0.000
       0.000  0.000  0.031 -0.000  0.071
     ------------------------ ATOM    2 ------------------------
     Tr[ns(  2)] (up, down, total) =   4.97166  2.19406  7.16572
     Atomic magnetic moment for atom   2 =   2.77760
     SPIN  1
     eigenvalues:
       0.989  0.991  0.996  0.997  0.998
     eigenvectors (columns):
       0.613 -0.000 -0.785  0.000 -0.085
      -0.749  0.000 -0.613  0.000  0.252
      -0.000  0.540 -0.000 -0.842 -0.000
       0.250  0.000  0.091 -0.000  0.964
       0.000  0.842  0.000  0.540 -0.000
     occupation matrix ns (before diag.):
       0.994  0.003 -0.000 -0.001  0.000
       0.003  0.992 -0.000  0.002  0.000
      -0.000 -0.000  0.995 -0.000 -0.003
      -0.001  0.002 -0.000  0.998 -0.000
       0.000  0.000 -0.003 -0.000  0.993
     SPIN  2
     eigenvalues:
       0.027  0.087  0.096  0.992  0.992
     eigenvectors (columns):
      -0.042  0.565 -0.000  0.824  0.000
       0.246 -0.794 -0.000  0.557  0.000
       0.000  0.000  0.633  0.000 -0.774
       0.968  0.226 -0.000 -0.105 -0.000
       0.000  0.000  0.774 -0.000  0.633
     occupation matrix ns (before diag.):
       0.701  0.416 -0.000 -0.076  0.000
       0.416  0.363 -0.000 -0.067  0.000
      -0.000 -0.000  0.634  0.000 -0.439
      -0.076 -0.067  0.000  0.041 -0.000
       0.000  0.000 -0.439 -0.000  0.455

     Number of occupied Hubbard levels =   12.3573

     HUBBARD ENERGY =    0.1322  (Ry)

     total cpu time spent up to now is       61.9 secs

     total energy              =   -1090.45786657 Ry
     estimated scf accuracy    <       0.00190200 Ry

     total magnetization       =     8.00 Bohr mag/cell
     absolute magnetization    =     8.02 Bohr mag/cell

     iteration #  6     ecut=   120.00 Ry     beta= 0.70
     Davidson diagonalization with overlap

---- Real-time Memory Report at c_bands before calling an iterative solver
           217 MiB given to the printing process from OS
           174 MiB allocation reported by mallinfo(arena+hblkhd)
        664006 MiB available memory on the node where the printing process lives
------------------
     c_bands:  1 eigenvalues not converged
     ethr =  1.76E-06,  avg # of iterations =  4.6

     =================== HUBBARD OCCUPATIONS ===================
     ------------------------ ATOM    1 ------------------------
     Tr[ns(  1)] (up, down, total) =   4.92354  0.27015  5.19369
     Atomic magnetic moment for atom   1 =   4.65339
     SPIN  1
     eigenvalues:
       0.970  0.970  0.994  0.994  0.995
     eigenvectors (columns):
      -0.589 -0.000 -0.785  0.000  0.193
       0.777  0.000 -0.615  0.000 -0.130
      -0.000  0.539 -0.000 -0.842  0.000
      -0.221  0.000 -0.073  0.000 -0.973
      -0.000  0.842  0.000  0.539  0.000
     occupation matrix ns (before diag.):
       0.986  0.011 -0.000 -0.003  0.000
       0.011  0.979 -0.000  0.004  0.000
      -0.000 -0.000  0.987 -0.000 -0.011
      -0.003  0.004 -0.000  0.994 -0.000
       0.000  0.000 -0.011 -0.000  0.977
     SPIN  2
     eigenvalues:
       0.026  0.027  0.031  0.093  0.094
     eigenvectors (columns):
      -0.000  0.846 -0.059  0.000  0.530
      -0.000  0.495 -0.280 -0.000 -0.822
      -0.820 -0.000  0.000  0.572 -0.000
       0.000 -0.197 -0.958 -0.000  0.208
       0.572  0.000 -0.000  0.820 -0.000
     occupation matrix ns (before diag.):
       0.046 -0.029  0.000  0.008  0.000
      -0.029  0.073 -0.000 -0.010  0.000
       0.000 -0.000  0.048 -0.000  0.031
       0.008 -0.010 -0.000  0.033 -0.000
       0.000  0.000  0.031 -0.000  0.071
     ------------------------ ATOM    2 ------------------------
     Tr[ns(  2)] (up, down, total) =   4.97229  2.19874  7.17103
     Atomic magnetic moment for atom   2 =   2.77355
     SPIN  1
     eigenvalues:
       0.990  0.991  0.996  0.997  0.998
     eigenvectors (columns):
       0.605 -0.000 -0.792  0.000 -0.083
      -0.755  0.000 -0.604  0.000  0.254
      -0.000  0.530 -0.000 -0.848 -0.000
       0.251  0.000  0.091 -0.000  0.964
       0.000  0.848  0.000  0.530 -0.000
     occupation matrix ns (before diag.):
       0.994  0.003 -0.000 -0.001  0.000
       0.003  0.993 -0.000  0.002  0.000
      -0.000 -0.000  0.995 -0.000 -0.003
      -0.001  0.002 -0.000  0.998 -0.000
       0.000  0.000 -0.003 -0.000  0.993
     SPIN  2
     eigenvalues:
       0.029  0.088  0.098  0.992  0.992
     eigenvectors (columns):
      -0.044  0.575  0.000  0.817  0.000
       0.245 -0.787 -0.000  0.567  0.000
       0.000  0.000  0.651  0.000 -0.759
       0.969  0.225 -0.000 -0.106 -0.000
       0.000 -0.000  0.759 -0.000  0.651
     occupation matrix ns (before diag.):
       0.691  0.419 -0.000 -0.076  0.000
       0.419  0.375 -0.000 -0.068  0.000
      -0.000 -0.000  0.613  0.000 -0.442
      -0.076 -0.068  0.000  0.043 -0.000
       0.000  0.000 -0.442 -0.000  0.477

     Number of occupied Hubbard levels =   12.3647

     HUBBARD ENERGY =    0.1249  (Ry)

     total cpu time spent up to now is       71.6 secs

     total energy              =   -1090.45880280 Ry
     estimated scf accuracy    <       0.00067347 Ry

     total magnetization       =     8.00 Bohr mag/cell
     absolute magnetization    =     8.03 Bohr mag/cell

     iteration #  7     ecut=   120.00 Ry     beta= 0.70
     Davidson diagonalization with overlap

---- Real-time Memory Report at c_bands before calling an iterative solver
           217 MiB given to the printing process from OS
           174 MiB allocation reported by mallinfo(arena+hblkhd)
        663965 MiB available memory on the node where the printing process lives
------------------
     ethr =  6.24E-07,  avg # of iterations =  2.3

     =================== HUBBARD OCCUPATIONS ===================
     ------------------------ ATOM    1 ------------------------
     Tr[ns(  1)] (up, down, total) =   4.92360  0.26976  5.19336
     Atomic magnetic moment for atom   1 =   4.65384
     SPIN  1
     eigenvalues:
       0.970  0.970  0.994  0.994  0.995
     eigenvectors (columns):
       0.589 -0.000  0.784  0.000  0.195
      -0.777  0.000  0.616  0.000 -0.128
       0.000  0.539  0.000 -0.842  0.000
       0.221  0.000  0.076  0.000 -0.972
       0.000  0.842 -0.000  0.539 -0.000
     occupation matrix ns (before diag.):
       0.986  0.011 -0.000 -0.003  0.000
       0.011  0.979 -0.000  0.004  0.000
      -0.000 -0.000  0.987 -0.000 -0.011
      -0.003  0.004 -0.000  0.994 -0.000
       0.000  0.000 -0.011 -0.000  0.977
     SPIN  2
     eigenvalues:
       0.026  0.027  0.030  0.092  0.094
     eigenvectors (columns):
      -0.000  0.846 -0.059  0.000  0.530
      -0.000  0.495 -0.280 -0.000 -0.822
      -0.820 -0.000  0.000  0.572 -0.000
       0.000 -0.197 -0.958 -0.000  0.208
       0.572  0.000 -0.000  0.820 -0.000
     occupation matrix ns (before diag.):
       0.045 -0.029  0.000  0.008  0.000
      -0.029  0.072 -0.000 -0.010  0.000
       0.000 -0.000  0.048 -0.000  0.031
       0.008 -0.010 -0.000  0.033 -0.000
       0.000  0.000  0.031 -0.000  0.071
     ------------------------ ATOM    2 ------------------------
     Tr[ns(  2)] (up, down, total) =   4.97262  2.19962  7.17224
     Atomic magnetic moment for atom   2 =   2.77300
     SPIN  1
     eigenvalues:
       0.990  0.991  0.997  0.997  0.998
     eigenvectors (columns):
       0.599 -0.000  0.796  0.000  0.080
      -0.760  0.000  0.598  0.000 -0.256
      -0.000  0.520  0.000 -0.854  0.000
       0.251  0.000 -0.092 -0.000 -0.963
       0.000  0.854 -0.000  0.520  0.000
     occupation matrix ns (before diag.):
       0.994  0.003 -0.000 -0.001  0.000
       0.003  0.993 -0.000  0.002  0.000
      -0.000 -0.000  0.995 -0.000 -0.003
      -0.001  0.002 -0.000  0.998 -0.000
       0.000  0.000 -0.003 -0.000  0.993
     SPIN  2
     eigenvalues:
       0.028  0.089  0.098  0.992  0.992
     eigenvectors (columns):
       0.047  0.583  0.000 -0.811  0.000
      -0.243 -0.781 -0.000 -0.576  0.000
      -0.000  0.000  0.669 -0.000 -0.744
      -0.969  0.225 -0.000  0.105 -0.000
      -0.000 -0.000  0.744  0.000  0.669
     occupation matrix ns (before diag.):
       0.683  0.422 -0.000 -0.074  0.000
       0.422  0.384 -0.000 -0.069  0.000
      -0.000 -0.000  0.593  0.000 -0.444
      -0.074 -0.069  0.000  0.042 -0.000
       0.000  0.000 -0.444 -0.000  0.498

     Number of occupied Hubbard levels =   12.3656

     HUBBARD ENERGY =    0.1242  (Ry)

     total cpu time spent up to now is       80.7 secs

     total energy              =   -1090.45920125 Ry
     estimated scf accuracy    <       0.00031945 Ry

     total magnetization       =     8.00 Bohr mag/cell
     absolute magnetization    =     8.03 Bohr mag/cell

     iteration #  8     ecut=   120.00 Ry     beta= 0.70
     Davidson diagonalization with overlap

---- Real-time Memory Report at c_bands before calling an iterative solver
           218 MiB given to the printing process from OS
           175 MiB allocation reported by mallinfo(arena+hblkhd)
        663926 MiB available memory on the node where the printing process lives
------------------
     ethr =  2.96E-07,  avg # of iterations =  3.3

     =================== HUBBARD OCCUPATIONS ===================
     ------------------------ ATOM    1 ------------------------
     Tr[ns(  1)] (up, down, total) =   4.92304  0.26942  5.19246
     Atomic magnetic moment for atom   1 =   4.65362
     SPIN  1
     eigenvalues:
       0.969  0.970  0.994  0.994  0.995
     eigenvectors (columns):
      -0.589 -0.000 -0.785  0.000  0.192
       0.777  0.000 -0.615  0.000 -0.131
      -0.000  0.539 -0.000 -0.842 -0.000
      -0.221  0.000 -0.073  0.000 -0.973
      -0.000  0.842  0.000  0.539  0.000
     occupation matrix ns (before diag.):
       0.986  0.011 -0.000 -0.003  0.000
       0.011  0.979 -0.000  0.004  0.000
      -0.000 -0.000  0.987 -0.000 -0.011
      -0.003  0.004 -0.000  0.994 -0.000
       0.000  0.000 -0.011 -0.000  0.977
     SPIN  2
     eigenvalues:
       0.026  0.027  0.030  0.092  0.094
     eigenvectors (columns):
      -0.000  0.846 -0.057  0.000  0.529
      -0.000  0.496 -0.279 -0.000 -0.823
      -0.820 -0.000  0.000  0.572 -0.000
       0.000 -0.195 -0.959 -0.000  0.208
       0.572  0.000 -0.000  0.820 -0.000
     occupation matrix ns (before diag.):
       0.045 -0.029  0.000  0.008  0.000
      -0.029  0.072 -0.000 -0.010  0.000
       0.000 -0.000  0.048 -0.000  0.031
       0.008 -0.010 -0.000  0.033 -0.000
       0.000  0.000  0.031 -0.000  0.071
     ------------------------ ATOM    2 ------------------------
     Tr[ns(  2)] (up, down, total) =   4.97256  2.19910  7.17165
     Atomic magnetic moment for atom   2 =   2.77346
     SPIN  1
     eigenvalues:
       0.990  0.991  0.997  0.997  0.998
     eigenvectors (columns):
       0.591 -0.000  0.803  0.000  0.079
      -0.766  0.000  0.590  0.000 -0.257
      -0.000  0.506  0.000 -0.862  0.000
       0.253  0.000 -0.091 -0.000 -0.963
       0.000  0.862 -0.000  0.506  0.000
     occupation matrix ns (before diag.):
       0.994  0.003 -0.000 -0.001  0.000
       0.003  0.993 -0.000  0.002  0.000
      -0.000 -0.000  0.995 -0.000 -0.003
      -0.001  0.002 -0.000  0.998 -0.000
       0.000  0.000 -0.003 -0.000  0.993
     SPIN  2
     eigenvalues:
       0.028  0.089  0.098  0.992  0.992
     eigenvectors (columns):
       0.057  0.591  0.000 -0.000 -0.804
      -0.238 -0.774 -0.000 -0.000 -0.586
      -0.000 -0.000  0.689 -0.725  0.000
      -0.970  0.225 -0.000  0.000  0.097
      -0.000 -0.000  0.725  0.689 -0.000
     occupation matrix ns (before diag.):
       0.673  0.427 -0.000 -0.067  0.000
       0.427  0.396 -0.000 -0.065  0.000
      -0.000 -0.000  0.568  0.000 -0.447
      -0.067 -0.065  0.000  0.040 -0.000
       0.000  0.000 -0.447 -0.000  0.522

     Number of occupied Hubbard levels =   12.3641

     HUBBARD ENERGY =    0.1246  (Ry)

     total cpu time spent up to now is       91.0 secs

     total energy              =   -1090.45970734 Ry
     estimated scf accuracy    <       0.00017554 Ry

     total magnetization       =     8.00 Bohr mag/cell
     absolute magnetization    =     8.03 Bohr mag/cell

     iteration #  9     ecut=   120.00 Ry     beta= 0.70
     Davidson diagonalization with overlap

---- Real-time Memory Report at c_bands before calling an iterative solver
           218 MiB given to the printing process from OS
           175 MiB allocation reported by mallinfo(arena+hblkhd)
        663896 MiB available memory on the node where the printing process lives
------------------
     ethr =  1.63E-07,  avg # of iterations =  2.7

     =================== HUBBARD OCCUPATIONS ===================
     ------------------------ ATOM    1 ------------------------
     Tr[ns(  1)] (up, down, total) =   4.92312  0.26942  5.19254
     Atomic magnetic moment for atom   1 =   4.65370
     SPIN  1
     eigenvalues:
       0.970  0.970  0.994  0.994  0.995
     eigenvectors (columns):
      -0.589 -0.000 -0.784  0.000  0.194
       0.777  0.000 -0.616  0.000 -0.129
      -0.000  0.539 -0.000 -0.842 -0.000
      -0.221  0.000 -0.075  0.000 -0.972
      -0.000  0.842  0.000  0.539  0.000
     occupation matrix ns (before diag.):
       0.986  0.011 -0.000 -0.003  0.000
       0.011  0.979 -0.000  0.004  0.000
      -0.000 -0.000  0.987 -0.000 -0.011
      -0.003  0.004 -0.000  0.994 -0.000
       0.000  0.000 -0.011 -0.000  0.977
     SPIN  2
     eigenvalues:
       0.026  0.027  0.030  0.092  0.094
     eigenvectors (columns):
      -0.000  0.847 -0.055  0.000  0.529
      -0.000  0.496 -0.278 -0.000 -0.823
      -0.820 -0.000  0.000  0.572 -0.000
       0.000 -0.192 -0.959 -0.000  0.208
       0.572  0.000 -0.000  0.820 -0.000
     occupation matrix ns (before diag.):
       0.045 -0.029  0.000  0.008  0.000
      -0.029  0.072 -0.000 -0.010  0.000
       0.000 -0.000  0.048 -0.000  0.031
       0.008 -0.010 -0.000  0.033 -0.000
       0.000  0.000  0.031 -0.000  0.071
     ------------------------ ATOM    2 ------------------------
     Tr[ns(  2)] (up, down, total) =   4.97266  2.19851  7.17117
     Atomic magnetic moment for atom   2 =   2.77414
     SPIN  1
     eigenvalues:
       0.990  0.991  0.997  0.997  0.998
     eigenvectors (columns):
       0.585 -0.000  0.807  0.000  0.082
      -0.770  0.000  0.585  0.000 -0.255
      -0.000  0.496  0.000 -0.868  0.000
       0.254  0.000 -0.087 -0.000 -0.963
       0.000  0.868 -0.000  0.496  0.000
     occupation matrix ns (before diag.):
       0.994  0.003 -0.000 -0.001  0.000
       0.003  0.993 -0.000  0.002  0.000
      -0.000 -0.000  0.996 -0.000 -0.003
      -0.001  0.002 -0.000  0.998 -0.000
       0.000  0.000 -0.003 -0.000  0.993
     SPIN  2
     eigenvalues:
       0.028  0.089  0.097  0.992  0.992
     eigenvectors (columns):
       0.067  0.598  0.000 -0.000 -0.799
      -0.232 -0.769 -0.000 -0.000 -0.595
      -0.000 -0.000  0.706 -0.708  0.000
      -0.970  0.225 -0.000  0.000  0.087
      -0.000 -0.000  0.708  0.706 -0.000
     occupation matrix ns (before diag.):
       0.665  0.430 -0.000 -0.059  0.000
       0.430  0.406 -0.000 -0.061  0.000
      -0.000 -0.000  0.546  0.000 -0.447
      -0.059 -0.061  0.000  0.038 -0.000
       0.000  0.000 -0.447 -0.000  0.543

     Number of occupied Hubbard levels =   12.3637

     HUBBARD ENERGY =    0.1241  (Ry)

     total cpu time spent up to now is      100.8 secs

     total energy              =   -1090.46022228 Ry
     estimated scf accuracy    <       0.00009931 Ry

     total magnetization       =     8.00 Bohr mag/cell
     absolute magnetization    =     8.03 Bohr mag/cell

     iteration # 10     ecut=   120.00 Ry     beta= 0.70
     Davidson diagonalization with overlap

---- Real-time Memory Report at c_bands before calling an iterative solver
           218 MiB given to the printing process from OS
           175 MiB allocation reported by mallinfo(arena+hblkhd)
        663858 MiB available memory on the node where the printing process lives
------------------
     ethr =  9.20E-08,  avg # of iterations =  2.7

     =================== HUBBARD OCCUPATIONS ===================
     ------------------------ ATOM    1 ------------------------
     Tr[ns(  1)] (up, down, total) =   4.92320  0.26941  5.19261
     Atomic magnetic moment for atom   1 =   4.65379
     SPIN  1
     eigenvalues:
       0.970  0.970  0.994  0.994  0.995
     eigenvectors (columns):
       0.589 -0.000  0.784  0.000  0.195
      -0.777  0.000  0.616  0.000 -0.129
       0.000  0.539  0.000 -0.842  0.000
       0.221  0.000  0.076  0.000 -0.972
       0.000  0.842 -0.000  0.539 -0.000
     occupation matrix ns (before diag.):
       0.986  0.011 -0.000 -0.003  0.000
       0.011  0.979 -0.000  0.004  0.000
      -0.000 -0.000  0.987 -0.000 -0.011
      -0.003  0.004 -0.000  0.994 -0.000
       0.000  0.000 -0.011 -0.000  0.977
     SPIN  2
     eigenvalues:
       0.026  0.027  0.030  0.092  0.094
     eigenvectors (columns):
      -0.000  0.847 -0.053  0.000  0.529
      -0.000  0.497 -0.277 -0.000 -0.823
      -0.820 -0.000  0.000  0.572 -0.000
       0.000 -0.190 -0.959 -0.000  0.208
       0.572  0.000 -0.000  0.820 -0.000
     occupation matrix ns (before diag.):
       0.045 -0.029  0.000  0.008  0.000
      -0.029  0.072 -0.000 -0.010  0.000
       0.000 -0.000  0.048 -0.000  0.031
       0.008 -0.010 -0.000  0.033 -0.000
       0.000  0.000  0.031 -0.000  0.071
     ------------------------ ATOM    2 ------------------------
     Tr[ns(  2)] (up, down, total) =   4.97267  2.19776  7.17043
     Atomic magnetic moment for atom   2 =   2.77491
     SPIN  1
     eigenvalues:
       0.990  0.991  0.997  0.997  0.998
     eigenvectors (columns):
       0.584 -0.000  0.807  0.000  0.088
      -0.771  0.000  0.586  0.000 -0.251
      -0.000  0.492  0.000 -0.870  0.000
       0.254  0.000 -0.079 -0.000 -0.964
       0.000  0.870 -0.000  0.492  0.000
     occupation matrix ns (before diag.):
       0.994  0.003 -0.000 -0.001  0.000
       0.003  0.993 -0.000  0.002  0.000
      -0.000 -0.000  0.996 -0.000 -0.003
      -0.001  0.002 -0.000  0.998 -0.000
       0.000  0.000 -0.003 -0.000  0.993
     SPIN  2
     eigenvalues:
       0.028  0.089  0.097  0.992  0.992
     eigenvectors (columns):
      -0.078  0.599  0.000 -0.000  0.797
       0.226 -0.768 -0.000 -0.000  0.599
       0.000  0.000  0.714 -0.700 -0.000
       0.971  0.226 -0.000  0.000 -0.075
       0.000 -0.000  0.700  0.714  0.000
     occupation matrix ns (before diag.):
       0.662  0.432 -0.000 -0.050  0.000
       0.432  0.411 -0.000 -0.054  0.000
      -0.000 -0.000  0.535  0.000 -0.448
      -0.050 -0.054  0.000  0.036 -0.000
       0.000  0.000 -0.448 -0.000  0.553

     Number of occupied Hubbard levels =   12.3630

     HUBBARD ENERGY =    0.1237  (Ry)

     total cpu time spent up to now is      110.1 secs

     total energy              =   -1090.46033756 Ry
     estimated scf accuracy    <       0.00008808 Ry

     total magnetization       =     8.00 Bohr mag/cell
     absolute magnetization    =     8.03 Bohr mag/cell

     iteration # 11     ecut=   120.00 Ry     beta= 0.70
     Davidson diagonalization with overlap

---- Real-time Memory Report at c_bands before calling an iterative solver
           219 MiB given to the printing process from OS
           176 MiB allocation reported by mallinfo(arena+hblkhd)
        663815 MiB available memory on the node where the printing process lives
------------------
     ethr =  8.16E-08,  avg # of iterations =  2.9

     =================== HUBBARD OCCUPATIONS ===================
     ------------------------ ATOM    1 ------------------------
     Tr[ns(  1)] (up, down, total) =   4.92326  0.26950  5.19276
     Atomic magnetic moment for atom   1 =   4.65376
     SPIN  1
     eigenvalues:
       0.970  0.970  0.994  0.994  0.995
     eigenvectors (columns):
      -0.589 -0.000 -0.784  0.000  0.195
       0.777  0.000 -0.616  0.000 -0.129
      -0.000  0.539 -0.000 -0.842  0.000
      -0.221  0.000 -0.075  0.000 -0.972
      -0.000  0.842  0.000  0.539  0.000
     occupation matrix ns (before diag.):
       0.986  0.011 -0.000 -0.003  0.000
       0.011  0.979 -0.000  0.004  0.000
      -0.000 -0.000  0.987 -0.000 -0.011
      -0.003  0.004 -0.000  0.994 -0.000
       0.000  0.000 -0.011 -0.000  0.977
     SPIN  2
     eigenvalues:
       0.026  0.027  0.030  0.092  0.094
     eigenvectors (columns):
      -0.000  0.847 -0.051  0.000  0.529
      -0.000  0.498 -0.275 -0.000 -0.822
      -0.820 -0.000  0.000  0.572 -0.000
       0.000 -0.187 -0.960 -0.000  0.208
       0.572  0.000 -0.000  0.820 -0.000
     occupation matrix ns (before diag.):
       0.045 -0.029  0.000  0.008  0.000
      -0.029  0.072 -0.000 -0.010  0.000
       0.000 -0.000  0.048 -0.000  0.031
       0.008 -0.010 -0.000  0.033 -0.000
       0.000  0.000  0.031 -0.000  0.071
     ------------------------ ATOM    2 ------------------------
     Tr[ns(  2)] (up, down, total) =   4.97267  2.19706  7.16973
     Atomic magnetic moment for atom   2 =   2.77562
     SPIN  1
     eigenvalues:
       0.990  0.991  0.997  0.997  0.998
     eigenvectors (columns):
       0.584 -0.000  0.806  0.000  0.099
      -0.771  0.000  0.588  0.000 -0.243
      -0.000  0.489  0.000 -0.873  0.000
       0.254  0.000 -0.066 -0.000 -0.965
       0.000  0.873 -0.000  0.489  0.000
     occupation matrix ns (before diag.):
       0.994  0.003 -0.000 -0.001  0.000
       0.003  0.993 -0.000  0.002  0.000
      -0.000 -0.000  0.996 -0.000 -0.003
      -0.001  0.002 -0.000  0.998 -0.000
       0.000  0.000 -0.003 -0.000  0.992
     SPIN  2
     eigenvalues:
       0.028  0.089  0.096  0.992  0.992
     eigenvectors (columns):
      -0.095  0.600  0.000 -0.000  0.794
       0.215 -0.767 -0.000 -0.000  0.605
       0.000 -0.000  0.724 -0.690 -0.000
       0.972  0.228 -0.000  0.000 -0.057
       0.000 -0.000  0.690  0.724  0.000
     occupation matrix ns (before diag.):
       0.658  0.435 -0.000 -0.035  0.000
       0.435  0.417 -0.000 -0.044  0.000
      -0.000 -0.000  0.522  0.000 -0.448
      -0.035 -0.044  0.000  0.034 -0.000
       0.000  0.000 -0.448 -0.000  0.566

     Number of occupied Hubbard levels =   12.3625

     HUBBARD ENERGY =    0.1226  (Ry)

     total cpu time spent up to now is      119.8 secs

     total energy              =   -1090.45942202 Ry
     estimated scf accuracy    <       0.00007935 Ry

     total magnetization       =     8.00 Bohr mag/cell
     absolute magnetization    =     8.03 Bohr mag/cell

     iteration # 12     ecut=   120.00 Ry     beta= 0.70
     Davidson diagonalization with overlap

---- Real-time Memory Report at c_bands before calling an iterative solver
           219 MiB given to the printing process from OS
           176 MiB allocation reported by mallinfo(arena+hblkhd)
        663814 MiB available memory on the node where the printing process lives
------------------
     ethr =  7.35E-08,  avg # of iterations =  3.8

     =================== HUBBARD OCCUPATIONS ===================
     ------------------------ ATOM    1 ------------------------
     Tr[ns(  1)] (up, down, total) =   4.92340  0.26971  5.19311
     Atomic magnetic moment for atom   1 =   4.65369
     SPIN  1
     eigenvalues:
       0.970  0.970  0.994  0.994  0.995
     eigenvectors (columns):
       0.589 -0.000  0.784  0.000  0.195
      -0.777  0.000  0.616  0.000 -0.129
       0.000  0.539  0.000 -0.842  0.000
       0.221  0.000  0.075  0.000 -0.972
       0.000  0.842 -0.000  0.539 -0.000
     occupation matrix ns (before diag.):
       0.986  0.011 -0.000 -0.003  0.000
       0.011  0.979 -0.000  0.004  0.000
      -0.000 -0.000  0.987 -0.000 -0.011
      -0.003  0.004 -0.000  0.994 -0.000
       0.000  0.000 -0.011 -0.000  0.977
     SPIN  2
     eigenvalues:
       0.026  0.027  0.030  0.092  0.094
     eigenvectors (columns):
      -0.000  0.847 -0.045  0.000  0.530
      -0.000  0.500 -0.272 -0.000 -0.822
      -0.820 -0.000  0.000  0.572 -0.000
       0.000 -0.181 -0.961 -0.000  0.208
       0.572  0.000 -0.000  0.820 -0.000
     occupation matrix ns (before diag.):
       0.045 -0.029  0.000  0.008  0.000
      -0.029  0.072 -0.000 -0.010  0.000
       0.000 -0.000  0.048 -0.000  0.031
       0.008 -0.010 -0.000  0.033 -0.000
       0.000  0.000  0.031 -0.000  0.071
     ------------------------ ATOM    2 ------------------------
     Tr[ns(  2)] (up, down, total) =   4.97269  2.19572  7.16841
     Atomic magnetic moment for atom   2 =   2.77697
     SPIN  1
     eigenvalues:
       0.990  0.991  0.997  0.997  0.998
     eigenvectors (columns):
       0.585 -0.000 -0.801  0.000 -0.129
      -0.770  0.000 -0.598  0.000  0.222
      -0.000  0.484 -0.000 -0.875 -0.000
       0.255  0.000  0.031 -0.000  0.966
       0.000  0.875  0.000  0.484 -0.000
     occupation matrix ns (before diag.):
       0.994  0.003 -0.000 -0.001  0.000
       0.003  0.993 -0.000  0.002  0.000
      -0.000 -0.000  0.996 -0.000 -0.003
      -0.001  0.002 -0.000  0.998 -0.000
       0.000  0.000 -0.003 -0.000  0.992
     SPIN  2
     eigenvalues:
       0.027  0.090  0.094  0.992  0.992
     eigenvectors (columns):
      -0.136  0.600  0.000 -0.000  0.788
       0.188 -0.765 -0.000 -0.000  0.616
       0.000 -0.000  0.742 -0.671 -0.000
       0.973  0.232 -0.000  0.000 -0.008
       0.000 -0.000  0.671  0.742  0.000
     occupation matrix ns (before diag.):
       0.649  0.439 -0.000  0.002  0.000
       0.439  0.430 -0.000 -0.016  0.000
      -0.000 -0.000  0.498  0.000 -0.447
       0.002 -0.016  0.000  0.031 -0.000
       0.000  0.000 -0.447 -0.000  0.588

     Number of occupied Hubbard levels =   12.3615

     HUBBARD ENERGY =    0.1240  (Ry)

     total cpu time spent up to now is      131.5 secs

     total energy              =   -1090.46085277 Ry
     estimated scf accuracy    <       0.00006275 Ry

     total magnetization       =     8.00 Bohr mag/cell
     absolute magnetization    =     8.03 Bohr mag/cell

     iteration # 13     ecut=   120.00 Ry     beta= 0.70
     Davidson diagonalization with overlap

---- Real-time Memory Report at c_bands before calling an iterative solver
           219 MiB given to the printing process from OS
           176 MiB allocation reported by mallinfo(arena+hblkhd)
        663809 MiB available memory on the node where the printing process lives
------------------
     ethr =  5.81E-08,  avg # of iterations =  2.9

     =================== HUBBARD OCCUPATIONS ===================
     ------------------------ ATOM    1 ------------------------
     Tr[ns(  1)] (up, down, total) =   4.92342  0.26971  5.19312
     Atomic magnetic moment for atom   1 =   4.65371
     SPIN  1
     eigenvalues:
       0.970  0.970  0.994  0.994  0.995
     eigenvectors (columns):
      -0.589 -0.000 -0.784  0.000  0.195
       0.777  0.000 -0.616  0.000 -0.128
      -0.000  0.540 -0.000 -0.842  0.000
      -0.221  0.000 -0.076  0.000 -0.972
      -0.000  0.842  0.000  0.540  0.000
     occupation matrix ns (before diag.):
       0.986  0.011 -0.000 -0.003  0.000
       0.011  0.979 -0.000  0.004  0.000
      -0.000 -0.000  0.987 -0.000 -0.011
      -0.003  0.004 -0.000  0.994 -0.000
       0.000  0.000 -0.011 -0.000  0.977
     SPIN  2
     eigenvalues:
       0.026  0.027  0.030  0.092  0.094
     eigenvectors (columns):
      -0.000  0.847 -0.042  0.000  0.530
      -0.000  0.500 -0.270 -0.000 -0.822
      -0.820 -0.000  0.000  0.572 -0.000
       0.000 -0.178 -0.962 -0.000  0.208
       0.572  0.000 -0.000  0.820 -0.000
     occupation matrix ns (before diag.):
       0.045 -0.029  0.000  0.008  0.000
      -0.029  0.072 -0.000 -0.010  0.000
       0.000 -0.000  0.048 -0.000  0.031
       0.008 -0.010 -0.000  0.033 -0.000
       0.000  0.000  0.031 -0.000  0.071
     ------------------------ ATOM    2 ------------------------
     Tr[ns(  2)] (up, down, total) =   4.97275  2.19548  7.16822
     Atomic magnetic moment for atom   2 =   2.77727
     SPIN  1
     eigenvalues:
       0.990  0.991  0.997  0.997  0.998
     eigenvectors (columns):
       0.586 -0.000 -0.797  0.000 -0.149
      -0.769  0.000 -0.605  0.000  0.208
       0.000  0.482 -0.000 -0.876 -0.000
       0.256  0.000  0.007 -0.000  0.967
       0.000  0.876  0.000  0.482 -0.000
     occupation matrix ns (before diag.):
       0.994  0.003 -0.000 -0.001  0.000
       0.003  0.993 -0.000  0.002  0.000
      -0.000 -0.000  0.996 -0.000 -0.003
      -0.001  0.002 -0.000  0.998 -0.000
       0.000  0.000 -0.003 -0.000  0.992
     SPIN  2
     eigenvalues:
       0.027  0.091  0.093  0.992  0.992
     eigenvectors (columns):
      -0.164  0.601  0.000 -0.000  0.782
       0.170 -0.764 -0.000 -0.000  0.623
       0.000 -0.000  0.749 -0.662 -0.000
       0.972  0.235 -0.000 -0.000  0.023
       0.000 -0.000  0.662  0.749  0.000
     occupation matrix ns (before diag.):
       0.641  0.441 -0.000  0.027  0.000
       0.441  0.438 -0.000  0.003  0.000
      -0.000 -0.000  0.487  0.000 -0.446
       0.027  0.003  0.000  0.031 -0.000
       0.000  0.000 -0.446 -0.000  0.598

     Number of occupied Hubbard levels =   12.3613

     HUBBARD ENERGY =    0.1179  (Ry)

     total cpu time spent up to now is      141.8 secs

     total energy              =   -1090.45805763 Ry
     estimated scf accuracy    <       0.00004489 Ry

     total magnetization       =     8.00 Bohr mag/cell
     absolute magnetization    =     8.03 Bohr mag/cell

     iteration # 14     ecut=   120.00 Ry     beta= 0.70
     Davidson diagonalization with overlap

---- Real-time Memory Report at c_bands before calling an iterative solver
           219 MiB given to the printing process from OS
           176 MiB allocation reported by mallinfo(arena+hblkhd)
        667935 MiB available memory on the node where the printing process lives
------------------
     ethr =  4.16E-08,  avg # of iterations =  4.7

     =================== HUBBARD OCCUPATIONS ===================
     ------------------------ ATOM    1 ------------------------
     Tr[ns(  1)] (up, down, total) =   4.92335  0.26963  5.19298
     Atomic magnetic moment for atom   1 =   4.65372
     SPIN  1
     eigenvalues:
       0.970  0.970  0.994  0.994  0.995
     eigenvectors (columns):
      -0.589 -0.000 -0.784  0.000  0.195
       0.777  0.000 -0.616  0.000 -0.129
      -0.000  0.540 -0.000 -0.842  0.000
      -0.221  0.000 -0.076  0.000 -0.972
      -0.000  0.842  0.000  0.540  0.000
     occupation matrix ns (before diag.):
       0.986  0.011 -0.000 -0.003  0.000
       0.011  0.979 -0.000  0.004  0.000
      -0.000 -0.000  0.987 -0.000 -0.011
      -0.003  0.004 -0.000  0.994 -0.000
       0.000  0.000 -0.011 -0.000  0.977
     SPIN  2
     eigenvalues:
       0.026  0.027  0.030  0.092  0.094
     eigenvectors (columns):
      -0.000  0.847 -0.036  0.000  0.530
      -0.000  0.503 -0.267 -0.000 -0.822
      -0.820 -0.000  0.000  0.572 -0.000
       0.000 -0.171 -0.963 -0.000  0.208
       0.572  0.000 -0.000  0.820 -0.000
     occupation matrix ns (before diag.):
       0.045 -0.029  0.000  0.008  0.000
      -0.029  0.072 -0.000 -0.010  0.000
       0.000 -0.000  0.048 -0.000  0.031
       0.008 -0.010 -0.000  0.033 -0.000
       0.000  0.000  0.031 -0.000  0.071
     ------------------------ ATOM    2 ------------------------
     Tr[ns(  2)] (up, down, total) =   4.97278  2.19366  7.16644
     Atomic magnetic moment for atom   2 =   2.77912
     SPIN  1
     eigenvalues:
       0.990  0.991  0.997  0.997  0.998
     eigenvectors (columns):
       0.588 -0.000 -0.783  0.000 -0.200
      -0.766  0.000 -0.619  0.000  0.171
       0.000  0.480 -0.000 -0.877 -0.000
       0.258  0.000 -0.053  0.000  0.965
       0.000  0.877  0.000  0.480 -0.000
     occupation matrix ns (before diag.):
       0.994  0.003 -0.000 -0.001  0.000
       0.003  0.993 -0.000  0.002  0.000
      -0.000 -0.000  0.996 -0.000 -0.003
      -0.001  0.002 -0.000  0.998 -0.000
       0.000  0.000 -0.003 -0.000  0.992
     SPIN  2
     eigenvalues:
       0.027  0.091  0.092  0.992  0.993
     eigenvectors (columns):
      -0.227 -0.000  0.602 -0.000  0.765
       0.126  0.000 -0.761 -0.000  0.636
       0.000  0.766  0.000 -0.643 -0.000
       0.966 -0.000  0.241 -0.000  0.097
       0.000  0.643  0.000  0.766  0.000
     occupation matrix ns (before diag.):
       0.616  0.440 -0.000  0.081  0.000
       0.440  0.456 -0.000  0.048  0.000
      -0.000 -0.000  0.463  0.000 -0.444
       0.081  0.048  0.000  0.039 -0.000
       0.000  0.000 -0.444 -0.000  0.619

     Number of occupied Hubbard levels =   12.3594

     HUBBARD ENERGY =    0.1279  (Ry)

     total cpu time spent up to now is      155.0 secs

     total energy              =   -1090.46143990 Ry
     estimated scf accuracy    <       0.00008598 Ry

     total magnetization       =     8.00 Bohr mag/cell
     absolute magnetization    =     8.03 Bohr mag/cell

     iteration # 15     ecut=   120.00 Ry     beta= 0.70
     Davidson diagonalization with overlap

---- Real-time Memory Report at c_bands before calling an iterative solver
           219 MiB given to the printing process from OS
           176 MiB allocation reported by mallinfo(arena+hblkhd)
        667935 MiB available memory on the node where the printing process lives
------------------
     ethr =  4.16E-08,  avg # of iterations =  3.0

     =================== HUBBARD OCCUPATIONS ===================
     ------------------------ ATOM    1 ------------------------
     Tr[ns(  1)] (up, down, total) =   4.92325  0.26946  5.19270
     Atomic magnetic moment for atom   1 =   4.65379
     SPIN  1
     eigenvalues:
       0.970  0.970  0.994  0.994  0.995
     eigenvectors (columns):
      -0.589 -0.000 -0.784  0.000  0.195
       0.777  0.000 -0.616  0.000 -0.128
      -0.000  0.540 -0.000 -0.842 -0.000
      -0.221  0.000 -0.076  0.000 -0.972
      -0.000  0.842  0.000  0.540  0.000
     occupation matrix ns (before diag.):
       0.986  0.011 -0.000 -0.003  0.000
       0.011  0.979 -0.000  0.004  0.000
      -0.000 -0.000  0.987 -0.000 -0.011
      -0.003  0.004 -0.000  0.994 -0.000
       0.000  0.000 -0.011 -0.000  0.977
     SPIN  2
     eigenvalues:
       0.026  0.027  0.030  0.092  0.094
     eigenvectors (columns):
      -0.000  0.847 -0.039  0.000  0.530
      -0.000  0.502 -0.268 -0.000 -0.822
      -0.820 -0.000  0.000  0.572 -0.000
       0.000 -0.174 -0.963 -0.000  0.208
       0.572  0.000 -0.000  0.820 -0.000
     occupation matrix ns (before diag.):
       0.045 -0.029  0.000  0.008  0.000
      -0.029  0.072 -0.000 -0.010  0.000
       0.000 -0.000  0.048 -0.000  0.031
       0.008 -0.010 -0.000  0.033 -0.000
       0.000  0.000  0.031 -0.000  0.071
     ------------------------ ATOM    2 ------------------------
     Tr[ns(  2)] (up, down, total) =   4.97281  2.19566  7.16847
     Atomic magnetic moment for atom   2 =   2.77716
     SPIN  1
     eigenvalues:
       0.990  0.991  0.997  0.997  0.998
     eigenvectors (columns):
       0.586 -0.000 -0.789  0.000 -0.185
      -0.768  0.000 -0.614  0.000  0.182
       0.000  0.482 -0.000 -0.876 -0.000
       0.257  0.000 -0.036  0.000  0.966
       0.000  0.876  0.000  0.482 -0.000
     occupation matrix ns (before diag.):
       0.994  0.003 -0.000 -0.001  0.000
       0.003  0.993 -0.000  0.002  0.000
      -0.000 -0.000  0.996 -0.000 -0.003
      -0.001  0.002 -0.000  0.998 -0.000
       0.000  0.000 -0.003 -0.000  0.992
     SPIN  2
     eigenvalues:
       0.028  0.092  0.092  0.992  0.992
     eigenvectors (columns):
      -0.208  0.606  0.000 -0.000  0.768
       0.138 -0.759 -0.000 -0.000  0.636
       0.000 -0.000  0.754 -0.657 -0.000
       0.968  0.239 -0.000 -0.000  0.074
       0.000 -0.000  0.657  0.754  0.000
     occupation matrix ns (before diag.):
       0.620  0.442 -0.000  0.064  0.000
       0.442  0.455 -0.000  0.034  0.000
      -0.000 -0.000  0.480  0.000 -0.445
       0.064  0.034  0.000  0.037 -0.000
       0.000  0.000 -0.445 -0.000  0.604

     Number of occupied Hubbard levels =   12.3612

     HUBBARD ENERGY =    0.1267  (Ry)

     total cpu time spent up to now is      165.5 secs

     total energy              =   -1090.46186943 Ry
     estimated scf accuracy    <       0.00005637 Ry

     total magnetization       =     8.00 Bohr mag/cell
     absolute magnetization    =     8.03 Bohr mag/cell

     iteration # 16     ecut=   120.00 Ry     beta= 0.70
     Davidson diagonalization with overlap

---- Real-time Memory Report at c_bands before calling an iterative solver
           219 MiB given to the printing process from OS
           176 MiB allocation reported by mallinfo(arena+hblkhd)
        667935 MiB available memory on the node where the printing process lives
------------------
     ethr =  4.16E-08,  avg # of iterations =  2.1

     =================== HUBBARD OCCUPATIONS ===================
     ------------------------ ATOM    1 ------------------------
     Tr[ns(  1)] (up, down, total) =   4.92325  0.26945  5.19270
     Atomic magnetic moment for atom   1 =   4.65381
     SPIN  1
     eigenvalues:
       0.970  0.970  0.994  0.994  0.995
     eigenvectors (columns):
      -0.589 -0.000 -0.784  0.000  0.196
       0.777  0.000 -0.616  0.000 -0.128
      -0.000  0.540 -0.000 -0.842  0.000
      -0.221  0.000 -0.077  0.000 -0.972
      -0.000  0.842  0.000  0.540  0.000
     occupation matrix ns (before diag.):
       0.986  0.011 -0.000 -0.003  0.000
       0.011  0.979 -0.000  0.004  0.000
      -0.000 -0.000  0.987 -0.000 -0.011
      -0.003  0.004 -0.000  0.994 -0.000
       0.000  0.000 -0.011 -0.000  0.977
     SPIN  2
     eigenvalues:
       0.026  0.027  0.030  0.092  0.094
     eigenvectors (columns):
      -0.000  0.847 -0.037  0.000  0.530
      -0.000  0.502 -0.267 -0.000 -0.822
      -0.820 -0.000  0.000  0.572 -0.000
       0.000 -0.172 -0.963 -0.000  0.208
       0.572  0.000 -0.000  0.820 -0.000
     occupation matrix ns (before diag.):
       0.045 -0.029  0.000  0.008  0.000
      -0.029  0.072 -0.000 -0.010  0.000
       0.000 -0.000  0.048 -0.000  0.031
       0.008 -0.010 -0.000  0.033 -0.000
       0.000  0.000  0.031 -0.000  0.071
     ------------------------ ATOM    2 ------------------------
     Tr[ns(  2)] (up, down, total) =   4.97284  2.19537  7.16821
     Atomic magnetic moment for atom   2 =   2.77746
     SPIN  1
     eigenvalues:
       0.990  0.991  0.997  0.997  0.998
     eigenvectors (columns):
       0.586 -0.000 -0.786  0.000 -0.196
      -0.768  0.000 -0.616  0.000  0.174
       0.000  0.482 -0.000 -0.876 -0.000
       0.258  0.000 -0.048  0.000  0.965
       0.000  0.876  0.000  0.482 -0.000
     occupation matrix ns (before diag.):
       0.994  0.003 -0.000 -0.001  0.000
       0.003  0.993 -0.000  0.002  0.000
      -0.000 -0.000  0.996 -0.000 -0.003
      -0.001  0.002 -0.000  0.998 -0.000
       0.000  0.000 -0.003 -0.000  0.992
     SPIN  2
     eigenvalues:
       0.027  0.092  0.092  0.992  0.992
     eigenvectors (columns):
      -0.223  0.607  0.000 -0.000  0.763
       0.129 -0.757 -0.000 -0.000  0.640
       0.000 -0.000  0.757 -0.654 -0.000
       0.966  0.241  0.000 -0.000  0.091
       0.000 -0.000  0.654  0.757  0.000
     occupation matrix ns (before diag.):
       0.613  0.442 -0.000  0.076  0.000
       0.442  0.460 -0.000  0.044  0.000
      -0.000 -0.000  0.476  0.000 -0.445
       0.076  0.044  0.000  0.039 -0.000
       0.000  0.000 -0.445 -0.000  0.607

     Number of occupied Hubbard levels =   12.3609

     HUBBARD ENERGY =    0.1257  (Ry)

     total cpu time spent up to now is      174.7 secs

     total energy              =   -1090.46206077 Ry
     estimated scf accuracy    <       0.00003744 Ry

     total magnetization       =     8.00 Bohr mag/cell
     absolute magnetization    =     8.03 Bohr mag/cell

     iteration # 17     ecut=   120.00 Ry     beta= 0.70
     Davidson diagonalization with overlap

---- Real-time Memory Report at c_bands before calling an iterative solver
           219 MiB given to the printing process from OS
           176 MiB allocation reported by mallinfo(arena+hblkhd)
        667935 MiB available memory on the node where the printing process lives
------------------
     ethr =  3.47E-08,  avg # of iterations =  2.1

     =================== HUBBARD OCCUPATIONS ===================
     ------------------------ ATOM    1 ------------------------
     Tr[ns(  1)] (up, down, total) =   4.92324  0.26944  5.19268
     Atomic magnetic moment for atom   1 =   4.65380
     SPIN  1
     eigenvalues:
       0.970  0.970  0.994  0.994  0.995
     eigenvectors (columns):
       0.589 -0.000  0.784  0.000  0.196
      -0.777  0.000  0.616  0.000 -0.128
       0.000  0.540  0.000 -0.842  0.000
       0.221  0.000  0.076  0.000 -0.972
       0.000  0.842 -0.000  0.540 -0.000
     occupation matrix ns (before diag.):
       0.986  0.011 -0.000 -0.003  0.000
       0.011  0.979 -0.000  0.004  0.000
      -0.000 -0.000  0.987 -0.000 -0.011
      -0.003  0.004 -0.000  0.994 -0.000
       0.000  0.000 -0.011 -0.000  0.977
     SPIN  2
     eigenvalues:
       0.026  0.027  0.030  0.092  0.094
     eigenvectors (columns):
      -0.000  0.847 -0.036  0.000  0.530
      -0.000  0.502 -0.267 -0.000 -0.822
      -0.820 -0.000  0.000  0.572 -0.000
       0.000 -0.171 -0.963 -0.000  0.208
       0.572  0.000 -0.000  0.820 -0.000
     occupation matrix ns (before diag.):
       0.045 -0.029  0.000  0.008  0.000
      -0.029  0.072 -0.000 -0.010  0.000
       0.000 -0.000  0.048 -0.000  0.031
       0.008 -0.010 -0.000  0.033 -0.000
       0.000  0.000  0.031 -0.000  0.071
     ------------------------ ATOM    2 ------------------------
     Tr[ns(  2)] (up, down, total) =   4.97284  2.19516  7.16799
     Atomic magnetic moment for atom   2 =   2.77768
     SPIN  1
     eigenvalues:
[...]
     1.0000   1.0000   1.0000   1.0000   1.0000   1.0000   1.0000   1.0000
     1.0000   1.0000   1.0000   1.0000   1.0000   1.0000   1.0000   1.0000
     1.0000   1.0000   1.0000   1.0000   1.0000   1.0000   1.0000   1.0000
     1.0000   1.0000   1.0000   1.0000   1.0000   1.0000   1.0000   1.0000
     1.0000   1.0000   0.0000   0.0000   0.0000   0.0000   0.0000   0.0000
     0.0000   0.0000   0.0000   0.0000   0.0000   0.0000   0.0000   0.0000
     0.0000

          k = 0.4169 0.2045 0.0826 ( 19018 PWs)   bands (ev):

   -82.0646 -63.9016 -63.8872 -63.8494 -45.6058 -45.3693 -45.2155 -32.6623
   -32.6493 -32.6362 -28.3456 -28.2955 -28.2706 -28.2046 -28.1750 -28.1296
    -7.8174  -7.1475  -6.9885  -6.6619  -6.5120  -6.2769  -6.2189  -6.0258
     4.0159   4.4144   4.6379   5.0727   5.2480   5.3611   5.5408   5.7512
     6.0769   6.2770   6.9321   7.0191   7.2480   7.4834   7.7115   7.8263
     7.9917   8.2472   8.5709   8.6003   8.8226   8.8823   8.9837   9.2586
     9.5502   9.7498  13.5306  13.8262  13.9701  14.3812  14.4182  15.0061
    15.6364  16.3374  16.5362  16.8207  16.8492  17.0117  17.6834  17.8728
    18.2561

     occupation numbers 
     1.0000   1.0000   1.0000   1.0000   1.0000   1.0000   1.0000   1.0000
     1.0000   1.0000   1.0000   1.0000   1.0000   1.0000   1.0000   1.0000
     1.0000   1.0000   1.0000   1.0000   1.0000   1.0000   1.0000   1.0000
     1.0000   1.0000   1.0000   1.0000   1.0000   1.0000   1.0000   1.0000
     1.0000   1.0000   1.0000   1.0000   1.0000   1.0000   1.0000   1.0000
     1.0000   1.0000   1.0000   1.0000   1.0000   1.0000   1.0000   1.0000
     1.0000   1.0000   0.0000   0.0000   0.0000   0.0000   0.0000   0.0000
     0.0000   0.0000   0.0000   0.0000   0.0000   0.0000   0.0000   0.0000
     0.0000

          k = 0.4172 0.2045 0.2376 ( 19030 PWs)   bands (ev):

   -82.0646 -63.9009 -63.8878 -63.8494 -45.6058 -45.3693 -45.2156 -32.6624
   -32.6493 -32.6362 -28.3456 -28.3070 -28.2620 -28.2181 -28.1637 -28.1251
    -7.6610  -7.1856  -6.9568  -6.7697  -6.5599  -6.3084  -6.1761  -6.0384
     4.0418   4.5026   4.6738   4.9336   5.0443   5.3039   5.5342   5.6686
     6.1879   6.4566   6.7793   7.1416   7.3041   7.4910   7.6924   7.8425
     8.1350   8.2478   8.4641   8.7381   8.8236   8.9334   9.0474   9.1544
     9.5157   9.6623  13.5144  13.8359  14.0817  14.3223  14.3927  14.9185
    15.6182  16.3581  16.4796  16.7367  16.9113  17.0085  17.6291  17.7915
    18.1639

     occupation numbers 
     1.0000   1.0000   1.0000   1.0000   1.0000   1.0000   1.0000   1.0000
     1.0000   1.0000   1.0000   1.0000   1.0000   1.0000   1.0000   1.0000
     1.0000   1.0000   1.0000   1.0000   1.0000   1.0000   1.0000   1.0000
     1.0000   1.0000   1.0000   1.0000   1.0000   1.0000   1.0000   1.0000
     1.0000   1.0000   1.0000   1.0000   1.0000   1.0000   1.0000   1.0000
     1.0000   1.0000   1.0000   1.0000   1.0000   1.0000   1.0000   1.0000
     1.0000   1.0000   0.0000   0.0000   0.0000   0.0000   0.0000   0.0000
     0.0000   0.0000   0.0000   0.0000   0.0000   0.0000   0.0000   0.0000
     0.0000

          k = 0.4176 0.2045 0.3926 ( 19051 PWs)   bands (ev):

   -82.0646 -63.8999 -63.8885 -63.8494 -45.6058 -45.3693 -45.2156 -32.6625
   -32.6493 -32.6362 -28.3434 -28.3191 -28.2496 -28.2337 -28.1547 -28.1216
    -7.4044  -7.2008  -7.0110  -6.8862  -6.5976  -6.4290  -6.1115  -6.0284
     4.1477   4.4908   4.5562   4.6747   4.9452   5.4602   5.6885   5.8711
     6.3567   6.5309   6.6586   7.0483   7.1175   7.3644   7.6810   7.7491
     8.2147   8.3556   8.4900   8.7233   8.8824   8.9935   9.1114   9.2006
     9.4333   9.6482  13.6035  13.7225  14.0959  14.2638  14.4586  14.7103
    15.5986  16.3573  16.4950  16.7206  16.9134  16.9705  17.5705  17.7183
    18.1664

     occupation numbers 
     1.0000   1.0000   1.0000   1.0000   1.0000   1.0000   1.0000   1.0000
     1.0000   1.0000   1.0000   1.0000   1.0000   1.0000   1.0000   1.0000
     1.0000   1.0000   1.0000   1.0000   1.0000   1.0000   1.0000   1.0000
     1.0000   1.0000   1.0000   1.0000   1.0000   1.0000   1.0000   1.0000
     1.0000   1.0000   1.0000   1.0000   1.0000   1.0000   1.0000   1.0000
     1.0000   1.0000   1.0000   1.0000   1.0000   1.0000   1.0000   1.0000
     1.0000   1.0000   0.0000   0.0000   0.0000   0.0000   0.0000   0.0000
     0.0000   0.0000   0.0000   0.0000   0.0000   0.0000   0.0000   0.0000
     0.0000

          k = 0.4157 0.2045-0.3824 ( 19017 PWs)   bands (ev):

   -82.0646 -63.8999 -63.8885 -63.8494 -45.6058 -45.3693 -45.2156 -32.6625
   -32.6493 -32.6362 -28.3434 -28.3191 -28.2495 -28.2339 -28.1546 -28.1216
    -7.4171  -7.1662  -6.9997  -6.8702  -6.5711  -6.5249  -6.1219  -6.0047
     4.1763   4.4581   4.4887   4.7141   5.1097   5.3301   5.7980   5.8905
     6.2755   6.6097   6.6907   6.9078   7.1660   7.2962   7.6736   7.8304
     8.1287   8.3923   8.5242   8.6843   8.7314   8.9801   9.1950   9.2465
     9.3762   9.7307  13.5647  13.7687  14.0163  14.2725  14.4410  14.6634
    15.5966  16.3293  16.5414  16.7796  16.8780  16.9547  17.5970  17.7537
    18.1409

     occupation numbers 
     1.0000   1.0000   1.0000   1.0000   1.0000   1.0000   1.0000   1.0000
     1.0000   1.0000   1.0000   1.0000   1.0000   1.0000   1.0000   1.0000
     1.0000   1.0000   1.0000   1.0000   1.0000   1.0000   1.0000   1.0000
     1.0000   1.0000   1.0000   1.0000   1.0000   1.0000   1.0000   1.0000
     1.0000   1.0000   1.0000   1.0000   1.0000   1.0000   1.0000   1.0000
     1.0000   1.0000   1.0000   1.0000   1.0000   1.0000   1.0000   1.0000
     1.0000   1.0000   0.0000   0.0000   0.0000   0.0000   0.0000   0.0000
     0.0000   0.0000   0.0000   0.0000   0.0000   0.0000   0.0000   0.0000
     0.0000

          k = 0.4161 0.2045-0.2274 ( 19019 PWs)   bands (ev):

   -82.0646 -63.9008 -63.8877 -63.8494 -45.6058 -45.3693 -45.2156 -32.6624
   -32.6493 -32.6362 -28.3456 -28.3070 -28.2619 -28.2184 -28.1636 -28.1252
    -7.6671  -7.1457  -6.8569  -6.7831  -6.6540  -6.3885  -6.1598  -6.0143
     4.0518   4.4979   4.6495   4.9540   5.0861   5.2901   5.6804   5.7594
     6.2888   6.3999   6.6000   7.0911   7.3451   7.4864   7.5820   7.9284
     8.0436   8.2500   8.4405   8.6645   8.7708   8.8667   9.1117   9.2137
     9.5260   9.7638  13.5046  13.8384  13.9712  14.2155  14.4338  14.8450
    15.6163  16.3220  16.5530  16.8054  16.8774  16.9876  17.6400  17.8384
    18.1749

     occupation numbers 
     1.0000   1.0000   1.0000   1.0000   1.0000   1.0000   1.0000   1.0000
     1.0000   1.0000   1.0000   1.0000   1.0000   1.0000   1.0000   1.0000
     1.0000   1.0000   1.0000   1.0000   1.0000   1.0000   1.0000   1.0000
     1.0000   1.0000   1.0000   1.0000   1.0000   1.0000   1.0000   1.0000
     1.0000   1.0000   1.0000   1.0000   1.0000   1.0000   1.0000   1.0000
     1.0000   1.0000   1.0000   1.0000   1.0000   1.0000   1.0000   1.0000
     1.0000   1.0000   0.0000   0.0000   0.0000   0.0000   0.0000   0.0000
     0.0000   0.0000   0.0000   0.0000   0.0000   0.0000   0.0000   0.0000
     0.0000

          k = 0.4165 0.2045-0.0724 ( 19027 PWs)   bands (ev):

   -82.0646 -63.9016 -63.8871 -63.8494 -45.6058 -45.3693 -45.2155 -32.6623
   -32.6493 -32.6361 -28.3456 -28.2955 -28.2705 -28.2048 -28.1749 -28.1296
    -7.8191  -7.1354  -6.9360  -6.6728  -6.5809  -6.2916  -6.1940  -6.0258
     4.0150   4.3975   4.6919   5.0690   5.2044   5.3397   5.5454   5.9379
     6.0980   6.3982   6.6332   7.0065   7.3651   7.4076   7.6357   7.8676
     8.0169   8.2320   8.4353   8.6784   8.7916   8.9114   8.9976   9.2269
     9.6601   9.7217  13.5529  13.7619  13.9666  14.2683  14.4832  14.9699
    15.6368  16.3290  16.5608  16.8072  16.8854  16.9974  17.6539  17.9008
    18.2847

     occupation numbers 
     1.0000   1.0000   1.0000   1.0000   1.0000   1.0000   1.0000   1.0000
     1.0000   1.0000   1.0000   1.0000   1.0000   1.0000   1.0000   1.0000
     1.0000   1.0000   1.0000   1.0000   1.0000   1.0000   1.0000   1.0000
     1.0000   1.0000   1.0000   1.0000   1.0000   1.0000   1.0000   1.0000
     1.0000   1.0000   1.0000   1.0000   1.0000   1.0000   1.0000   1.0000
     1.0000   1.0000   1.0000   1.0000   1.0000   1.0000   1.0000   1.0000
     1.0000   1.0000   0.0000   0.0000   0.0000   0.0000   0.0000   0.0000
     0.0000   0.0000   0.0000   0.0000   0.0000   0.0000   0.0000   0.0000
     0.0000

          k = 0.4169 0.3409 0.0826 ( 19030 PWs)   bands (ev):

   -82.0646 -63.9015 -63.8872 -63.8494 -45.6058 -45.3693 -45.2155 -32.6623
   -32.6493 -32.6362 -28.3452 -28.2943 -28.2700 -28.2052 -28.1765 -28.1300
    -7.7358  -7.2351  -6.9884  -6.6553  -6.5524  -6.2837  -6.1671  -6.0422
     3.8527   4.5273   4.6611   5.0855   5.2482   5.3437   5.7520   6.0542
     6.0970   6.4889   6.6555   6.9781   7.2656   7.4121   7.6021   7.8035
     7.8776   8.1812   8.3197   8.6219   8.7982   8.8805   9.0612   9.2962
     9.5257   9.6524  13.4597  13.9400  14.0420  14.2040  14.5050  15.0878
    15.6582  16.2865  16.5533  16.7773  16.8675  17.0042  17.6728  17.8493
    18.1363

     occupation numbers 
     1.0000   1.0000   1.0000   1.0000   1.0000   1.0000   1.0000   1.0000
     1.0000   1.0000   1.0000   1.0000   1.0000   1.0000   1.0000   1.0000
     1.0000   1.0000   1.0000   1.0000   1.0000   1.0000   1.0000   1.0000
     1.0000   1.0000   1.0000   1.0000   1.0000   1.0000   1.0000   1.0000
     1.0000   1.0000   1.0000   1.0000   1.0000   1.0000   1.0000   1.0000
     1.0000   1.0000   1.0000   1.0000   1.0000   1.0000   1.0000   1.0000
     1.0000   1.0000   0.0000   0.0000   0.0000   0.0000   0.0000   0.0000
     0.0000   0.0000   0.0000   0.0000   0.0000   0.0000   0.0000   0.0000
     0.0000

          k = 0.4172 0.3409 0.2376 ( 19018 PWs)   bands (ev):

   -82.0646 -63.9007 -63.8878 -63.8494 -45.6058 -45.3693 -45.2156 -32.6624
   -32.6493 -32.6362 -28.3460 -28.3070 -28.2613 -28.2187 -28.1639 -28.1247
    -7.6069  -7.2695  -6.9544  -6.7573  -6.4670  -6.3592  -6.1849  -6.0657
     3.8937   4.4563   4.7267   4.9665   5.1281   5.3288   5.7699   5.8520
     6.2861   6.4841   6.6038   7.0790   7.3055   7.5280   7.6572   7.7718
     8.0883   8.2583   8.4711   8.6144   8.7022   8.8897   9.0211   9.1932
     9.4432   9.5553  13.5002  13.9385  14.1550  14.2288  14.3258  14.9665
    15.6275  16.3236  16.4765  16.6926  16.9376  16.9717  17.6504  17.7900
    18.0655

     occupation numbers 
     1.0000   1.0000   1.0000   1.0000   1.0000   1.0000   1.0000   1.0000
     1.0000   1.0000   1.0000   1.0000   1.0000   1.0000   1.0000   1.0000
     1.0000   1.0000   1.0000   1.0000   1.0000   1.0000   1.0000   1.0000
     1.0000   1.0000   1.0000   1.0000   1.0000   1.0000   1.0000   1.0000
     1.0000   1.0000   1.0000   1.0000   1.0000   1.0000   1.0000   1.0000
     1.0000   1.0000   1.0000   1.0000   1.0000   1.0000   1.0000   1.0000
     1.0000   1.0000   0.0000   0.0000   0.0000   0.0000   0.0000   0.0000
     0.0000   0.0000   0.0000   0.0000   0.0000   0.0000   0.0000   0.0000
     0.0000

          k = 0.4176 0.3409 0.3926 ( 19026 PWs)   bands (ev):

   -82.0646 -63.8998 -63.8885 -63.8494 -45.6058 -45.3693 -45.2156 -32.6625
   -32.6493 -32.6363 -28.3446 -28.3201 -28.2493 -28.2339 -28.1538 -28.1206
    -7.4079  -7.2666  -6.9782  -6.8742  -6.4843  -6.4105  -6.1636  -6.0903
     4.0606   4.3972   4.5637   4.6771   5.1719   5.4637   5.7022   6.0169
     6.2282   6.5164   6.8869   7.1287   7.1855   7.3213   7.6753   7.8899
     8.1619   8.3007   8.3902   8.6060   8.7986   8.9312   9.0003   9.1562
     9.3478   9.5834  13.6191  13.8570  14.0301  14.1725  14.4085  14.7368
    15.5905  16.3307  16.4567  16.6462  16.8989  16.9630  17.5960  17.7092
    18.1768

     occupation numbers 
     1.0000   1.0000   1.0000   1.0000   1.0000   1.0000   1.0000   1.0000
     1.0000   1.0000   1.0000   1.0000   1.0000   1.0000   1.0000   1.0000
     1.0000   1.0000   1.0000   1.0000   1.0000   1.0000   1.0000   1.0000
     1.0000   1.0000   1.0000   1.0000   1.0000   1.0000   1.0000   1.0000
     1.0000   1.0000   1.0000   1.0000   1.0000   1.0000   1.0000   1.0000
     1.0000   1.0000   1.0000   1.0000   1.0000   1.0000   1.0000   1.0000
     1.0000   1.0000   0.0000   0.0000   0.0000   0.0000   0.0000   0.0000
     0.0000   0.0000   0.0000   0.0000   0.0000   0.0000   0.0000   0.0000
     0.0000

          k = 0.4157 0.3409-0.3824 ( 19013 PWs)   bands (ev):

   -82.0646 -63.8998 -63.8885 -63.8494 -45.6058 -45.3693 -45.2156 -32.6625
   -32.6493 -32.6362 -28.3446 -28.3201 -28.2492 -28.2341 -28.1537 -28.1206
    -7.4062  -7.2108  -7.0101  -6.8772  -6.5005  -6.4483  -6.1833  -6.0450
     4.1953   4.3274   4.5596   4.6776   5.0875   5.4714   5.7405   5.9265
     6.2981   6.5687   6.9025   7.0780   7.2439   7.3049   7.6862   8.0026
     8.1189   8.2436   8.3502   8.5548   8.6653   8.8962   9.1432   9.1997
     9.2435   9.7062  13.6064  13.8118  14.0157  14.1493  14.4639  14.6133
    15.5979  16.2988  16.4877  16.6685  16.8965  16.9521  17.5947  17.7303
    18.2881

     occupation numbers 
     1.0000   1.0000   1.0000   1.0000   1.0000   1.0000   1.0000   1.0000
     1.0000   1.0000   1.0000   1.0000   1.0000   1.0000   1.0000   1.0000
     1.0000   1.0000   1.0000   1.0000   1.0000   1.0000   1.0000   1.0000
     1.0000   1.0000   1.0000   1.0000   1.0000   1.0000   1.0000   1.0000
     1.0000   1.0000   1.0000   1.0000   1.0000   1.0000   1.0000   1.0000
     1.0000   1.0000   1.0000   1.0000   1.0000   1.0000   1.0000   1.0000
     1.0000   1.0000   0.0000   0.0000   0.0000   0.0000   0.0000   0.0000
     0.0000   0.0000   0.0000   0.0000   0.0000   0.0000   0.0000   0.0000
     0.0000

          k = 0.4161 0.3409-0.2274 ( 18997 PWs)   bands (ev):

   -82.0646 -63.9006 -63.8878 -63.8494 -45.6058 -45.3693 -45.2156 -32.6624
   -32.6493 -32.6362 -28.3460 -28.3070 -28.2613 -28.2189 -28.1638 -28.1248
    -7.5957  -7.2202  -6.9025  -6.7838  -6.6182  -6.3822  -6.1462  -6.0279
     3.9776   4.5716   4.7304   4.9108   5.0300   5.1775   5.8583   5.9535
     6.2737   6.3536   6.7397   7.1475   7.4022   7.5109   7.5281   7.9673
     8.0117   8.1580   8.3376   8.5406   8.6258   8.8787   9.0700   9.2542
     9.3807   9.7398  13.4523  13.9191  14.0593  14.1887  14.3477  14.8326
    15.6475  16.2753  16.5000  16.7383  16.9245  16.9704  17.5965  17.8251
    18.2801

     occupation numbers 
     1.0000   1.0000   1.0000   1.0000   1.0000   1.0000   1.0000   1.0000
     1.0000   1.0000   1.0000   1.0000   1.0000   1.0000   1.0000   1.0000
     1.0000   1.0000   1.0000   1.0000   1.0000   1.0000   1.0000   1.0000
     1.0000   1.0000   1.0000   1.0000   1.0000   1.0000   1.0000   1.0000
     1.0000   1.0000   1.0000   1.0000   1.0000   1.0000   1.0000   1.0000
     1.0000   1.0000   1.0000   1.0000   1.0000   1.0000   1.0000   1.0000
     1.0000   1.0000   0.0000   0.0000   0.0000   0.0000   0.0000   0.0000
     0.0000   0.0000   0.0000   0.0000   0.0000   0.0000   0.0000   0.0000
     0.0000

          k = 0.4165 0.3409-0.0724 ( 19013 PWs)   bands (ev):

   -82.0646 -63.9014 -63.8872 -63.8494 -45.6058 -45.3693 -45.2155 -32.6623
   -32.6494 -32.6362 -28.3452 -28.2943 -28.2700 -28.2054 -28.1764 -28.1300
    -7.7309  -7.2224  -6.9313  -6.6876  -6.6334  -6.2876  -6.1435  -6.0291
     3.8797   4.5353   4.8058   4.9460   5.1817   5.3240   5.7661   6.0191
     6.1903   6.5279   6.6686   7.0164   7.2849   7.3771   7.5298   7.7633
     7.9507   8.1496   8.3175   8.4985   8.8125   8.9518   9.0562   9.2580
     9.5854   9.6703  13.4312  13.9266  14.0412  14.1585  14.5016  15.0285
    15.6693  16.2710  16.5407  16.7828  16.9009  16.9938  17.5972  17.9173
    18.2547

     occupation numbers 
     1.0000   1.0000   1.0000   1.0000   1.0000   1.0000   1.0000   1.0000
     1.0000   1.0000   1.0000   1.0000   1.0000   1.0000   1.0000   1.0000
     1.0000   1.0000   1.0000   1.0000   1.0000   1.0000   1.0000   1.0000
     1.0000   1.0000   1.0000   1.0000   1.0000   1.0000   1.0000   1.0000
     1.0000   1.0000   1.0000   1.0000   1.0000   1.0000   1.0000   1.0000
     1.0000   1.0000   1.0000   1.0000   1.0000   1.0000   1.0000   1.0000
     1.0000   1.0000   0.0000   0.0000   0.0000   0.0000   0.0000   0.0000
     0.0000   0.0000   0.0000   0.0000   0.0000   0.0000   0.0000   0.0000
     0.0000

     the Fermi energy is    12.4714 ev

!    total energy              =   -1090.46251667 Ry
     estimated scf accuracy    <          6.3E-11 Ry
     smearing contrib. (-TS)   =       0.00000000 Ry
     internal energy E=F+TS    =   -1090.46251667 Ry

     The total energy is F=E-TS. E is the sum of the following terms:
     one-electron contribution =    -435.62313017 Ry
     hartree contribution      =     276.99033946 Ry
     xc contribution           =    -224.08139283 Ry
     ewald contribution        =    -707.87140255 Ry
     Hubbard energy            =       0.12306942 Ry

     total magnetization       =     8.00 Bohr mag/cell
     absolute magnetization    =     8.03 Bohr mag/cell

     convergence has been achieved in  31 iterations

     Writing all to output data dir ./tmp/MnCoWO4_FM/MnCoWO4_FM.save/ :
     XML data file, charge density
     init_run     :      4.00s CPU      4.10s WALL (       1 calls)
     electrons    :    351.86s CPU    355.27s WALL (       1 calls)

     Called by init_run:
     wfcinit      :      3.95s CPU      4.03s WALL (       1 calls)
     wfcinit:atom :      0.02s CPU      0.02s WALL (     108 calls)
     wfcinit:wfcr :      3.08s CPU      3.15s WALL (     108 calls)
     potinit      :      0.01s CPU      0.02s WALL (       1 calls)
     hinit0       :      0.01s CPU      0.02s WALL (       1 calls)

     Called by electrons:
     c_bands      :    318.81s CPU    321.72s WALL (      31 calls)
     sum_band     :     32.37s CPU     32.77s WALL (      31 calls)
     v_of_rho     :      0.29s CPU      0.30s WALL (      32 calls)
     v_h          :      0.01s CPU      0.01s WALL (      32 calls)
     v_xc         :      0.28s CPU      0.29s WALL (      32 calls)
     mix_rho      :      0.37s CPU      0.39s WALL (      31 calls)

     Called by c_bands:
     init_us_2    :      4.44s CPU      4.57s WALL (    6912 calls)
     cegterg      :    297.49s CPU    300.10s WALL (    3348 calls)

     Called by sum_band:
     sum_band:wei :      0.25s CPU      0.25s WALL (      31 calls)
     sum_band:loo :     30.37s CPU     30.73s WALL (      31 calls)
     sum_band:buf :      0.42s CPU      0.43s WALL (    3348 calls)
     sum_band:ini :      1.41s CPU      1.43s WALL (    3348 calls)

     Called by *egterg:
     cdiaghg      :     51.42s CPU     51.66s WALL (   16883 calls)
     cegterg:over :     15.67s CPU     15.77s WALL (   13535 calls)
     cegterg:upda :      8.14s CPU      8.20s WALL (   13535 calls)
     cegterg:last :     14.00s CPU     14.08s WALL (    7488 calls)
     h_psi        :    200.27s CPU    202.45s WALL (   16991 calls)
     g_psi        :      0.67s CPU      0.67s WALL (   13535 calls)

     Called by h_psi:
     h_psi:calbec :     23.73s CPU     23.92s WALL (   16991 calls)
     vloc_psi     :    147.24s CPU    149.05s WALL (   16991 calls)
     add_vuspsi   :     20.86s CPU     21.00s WALL (   16991 calls)
     vhpsi        :      7.44s CPU      7.49s WALL (   16991 calls)

     General routines
     calbec       :     31.59s CPU     31.86s WALL (   37438 calls)
     fft          :      0.12s CPU      0.13s WALL (     606 calls)
     ffts         :      0.20s CPU      0.20s WALL (    1014 calls)
     fftw         :    164.53s CPU    166.52s WALL ( 1392714 calls)
 
     Parallel routines

     Hubbard U routines
     new_ns       :      1.70s CPU      1.74s WALL (      31 calls)
     vhpsi        :      7.44s CPU      7.49s WALL (   16991 calls)
 
     PWSCF        :   5m55.93s CPU   5m59.58s WALL

 
   This run was terminated on:   8:59:12   9Mar2026            

=------------------------------------------------------------------------------=
   JOB DONE.
=------------------------------------------------------------------------------=
