
     Program PWSCF v.7.4.1 starts on  9Mar2026 at  8:53:13 
        Git branch: heads/qe-7.4.1
        Last git commit: 500de340b820e1cb8c05f2d8bb8fced102f377c1-dirty
        Last git commit date: Fri Feb 7 14:59:05 2025 +0000
        Last git commit subject: Merge branch 'qe-7.4.1' into 'master'

     This program is part of the open-source Quantum ESPRESSO suite
     for quantum simulation of materials; please cite
         "P. Giannozzi et al., J. Phys.:Condens. Matter 21 395502 (2009);
         "P. Giannozzi et al., J. Phys.:Condens. Matter 29 465901 (2017);
         "P. Giannozzi et al., J. Chem. Phys. 152 154105 (2020);
          URL http://www.quantum-espresso.org", 
     in publications or presentations arising from this work. More details at
     http://www.quantum-espresso.org/quote

     Parallel version (MPI), running on    24 processors

     MPI processes distributed on     1 nodes
     674426 MiB available memory on the printing compute node when the environment starts
 
     Reading input from inputs_FM/MnFeWO4_FM.in

     Current dimensions of program PWSCF are:
     Max number of different atomic species (ntypx) = 10
     Max number of k-points (npk) =  40000
     Max angular momentum in pseudopotentials (lmaxx) =  4
     Message from routine setup:
     using ibrav=0 with symmetry is DISCOURAGED, use correct ibrav instead
 
     R & G space division:  proc/nbgrp/npool/nimage =      24
     Subspace diagonalization in iterative solution of the eigenvalue problem:
     a serial algorithm will be used

 
     Parallelization info
     --------------------
     sticks:   dense  smooth     PW     G-vecs:    dense   smooth      PW
     Min         145     145     39                 6321     6321     895
     Max         146     146     40                 6324     6324     900
     Sum        3489    3489    945               151731   151731   21541
 
     Using Slab Decomposition
 


     bravais-lattice index     =            0
     lattice parameter (alat)  =       8.6340  a.u.
     unit-cell volume          =     854.2798 (a.u.)^3
     number of atoms/cell      =           12
     number of atomic types    =            4
     number of electrons       =       107.00
     number of Kohn-Sham states=           65
     kinetic-energy cutoff     =     120.0000  Ry
     charge density cutoff     =     480.0000  Ry
     scf convergence threshold =      1.0E-09
     mixing beta               =       0.7000
     number of iterations used =            8  local-TF  mixing
     Exchange-correlation= PBESOL
                           (   1   4  10   8   0   0   0)
     Hubbard projectors: ortho-atomic
     Hubbard parameters of DFT+U (Dudarev formulation) in eV:
     U(Mn-3d) =  4.6500
     U(Fe-3d) =  7.0800

     Internal variables: lda_plus_u = T, lda_plus_u_kind = 0

     celldm(1)=   8.634048  celldm(2)=   0.000000  celldm(3)=   0.000000
     celldm(4)=   0.000000  celldm(5)=   0.000000  celldm(6)=   0.000000

     crystal axes: (cart. coord. in units of alat)
               a(1) = (   1.000000   0.000000   0.000209 )  
               a(2) = (   0.000000   1.228353   0.000000 )  
               a(3) = (  -0.011509   0.000000   1.080520 )  

     reciprocal axes: (cart. coord. in units 2 pi/alat)
               b(1) = (  0.999998  0.000000  0.010652 )  
               b(2) = (  0.000000  0.814098  0.000000 )  
               b(3) = ( -0.000194  0.000000  0.925479 )  


     PseudoPot. # 1 for Mn read from file:
     pseudo_dojo_pbesol/Mn.upf
     MD5 check sum: ef44e22c4884c1dd3870421f9f7ffd72
     Pseudo is Norm-conserving + core correction, Zval = 15.0
     Generated using ONCVPSP code by D. R. Hamann
     Using radial grid of 1448 points,  6 beta functions with: 
                l(1) =   0
                l(2) =   0
                l(3) =   1
                l(4) =   1
                l(5) =   2
                l(6) =   2

     PseudoPot. # 2 for Fe read from file:
     pseudo_dojo_pbesol/Fe.upf
     MD5 check sum: d1f1a3649ace7f41c554fadafcf9d57b
     Pseudo is Norm-conserving + core correction, Zval = 16.0
     Generated using ONCVPSP code by D. R. Hamann
     Using radial grid of 1426 points,  6 beta functions with: 
                l(1) =   0
                l(2) =   0
                l(3) =   1
                l(4) =   1
                l(5) =   2
                l(6) =   2

     PseudoPot. # 3 for W  read from file:
     pseudo_dojo_pbesol/W.upf
     MD5 check sum: b5ac44390825a9169ccdba7091ec60d0
     Pseudo is Norm-conserving + core correction, Zval = 14.0
     Generated using ONCVPSP code by D. R. Hamann
     Using radial grid of 1396 points,  8 beta functions with: 
                l(1) =   0
                l(2) =   0
                l(3) =   1
                l(4) =   1
                l(5) =   2
                l(6) =   2
                l(7) =   3
                l(8) =   3

     PseudoPot. # 4 for O  read from file:
     pseudo_dojo_pbesol/O.upf
     MD5 check sum: f226cbcd508cec715ff87a8f75a1dfba
     Pseudo is Norm-conserving + core correction, Zval =  6.0
     Generated using ONCVPSP code by D. R. Hamann
     Using radial grid of  936 points,  5 beta functions with: 
                l(1) =   0
                l(2) =   0
                l(3) =   1
                l(4) =   1
                l(5) =   2

     atomic species   valence    mass     pseudopotential
     Mn               15.00    54.93805     Mn( 1.00)
     Fe               16.00    55.84500     Fe( 1.00)
     W                14.00   183.84000     W ( 1.00)
     O                 6.00    15.99940     O ( 1.00)

     Starting magnetic structure 
     atomic species   magnetization
     Mn              0.200
     Fe              0.200
     W               0.000
     O               0.000

      2 Sym. Ops. (no inversion) found ( 1 have fractional translation)


                                    s                        frac. trans.

      isym =  1     identity                                     

 cryst.   s( 1) = (     1          0          0      )
                  (     0          1          0      )
                  (     0          0          1      )

 cart.    s( 1) = (  1.0000000  0.0000000  0.0000000 )
                  (  0.0000000  1.0000000  0.0000000 )
                  (  0.0000000  0.0000000  1.0000000 )


      isym =  2     180 deg rotation - cart. axis [0,1,0]        

 cryst.   s( 2) = (    -1          0          0      )    f =(  0.0000000 )
                  (     0          1          0      )       (  0.0000000 )
                  (     0          0         -1      )       ( -0.5000000 )

 cart.    s( 2) = ( -1.0000000  0.0000000 -0.0000000 )    f =(  0.0057547 )
                  (  0.0000000  1.0000000  0.0000000 )       (  0.0000000 )
                  (  0.0000000  0.0000000 -1.0000000 )       ( -0.5402598 )


   Cartesian axes

     site n.     atom                  positions (alat units)
         1        Mn     tau(   1) = (   0.4913679   0.8303408   0.8104943  )
         2        Fe     tau(   2) = (   0.4971226   0.3984861   0.2702346  )
         3        W      tau(   3) = (  -0.0086321   0.2214198   0.8103896  )
         4        W      tau(   4) = (  -0.0028774   1.0083757   0.2701299  )
         5        O      tau(   5) = (   0.2416571   0.4696224   0.9740574  )
         6        O      tau(   6) = (   0.7410788   0.4696224   0.6469313  )
         7        O      tau(   7) = (   0.7431808   0.7576079   0.1125848  )
         8        O      tau(   8) = (   0.2510645   0.7576079   0.4278844  )
         9        O      tau(   9) = (   0.2096333   1.1067543   1.0176416  )
        10        O      tau(  10) = (   0.7731026   1.1067543   0.6033471  )
        11        O      tau(  11) = (   0.7752778   0.1217635   0.0634375  )
        12        O      tau(  12) = (   0.2189675   0.1217635   0.4770317  )

   Crystallographic axes

     site n.     atom                  positions (cryst. coord.)
         1        Mn     tau(   1) = (  0.5000000  0.6759789  0.7500000  )
         2        Fe     tau(   2) = (  0.5000000  0.3244068  0.2500000  )
         3        W      tau(   3) = (  0.0000000  0.1802575  0.7500000  )
         4        W      tau(   4) = (  0.0000000  0.8209168  0.2500000  )
         5        O      tau(   5) = (  0.2520319  0.3823187  0.9014225  )
         6        O      tau(   6) = (  0.7479681  0.3823187  0.5985775  )
         7        O      tau(   7) = (  0.7443784  0.6167672  0.1040508  )
         8        O      tau(   8) = (  0.2556216  0.6167672  0.3959492  )
         9        O      tau(   9) = (  0.2204724  0.9010066  0.9417650  )
        10        O      tau(  10) = (  0.7795276  0.9010066  0.5582350  )
        11        O      tau(  11) = (  0.7759518  0.0991275  0.0585598  )
        12        O      tau(  12) = (  0.2240482  0.0991275  0.4414402  )

     number of k points=    54  Marzari-Vanderbilt smearing, width (Ry)=  0.0200
                       cart. coord. in units 2pi/alat
        k(    1) = (   0.0833170   0.0678415   0.0780109), wk =   0.0185185
        k(    2) = (   0.0832847   0.0678415   0.2322573), wk =   0.0185185
        k(    3) = (   0.0832524   0.0678415   0.3865038), wk =   0.0185185
        k(    4) = (   0.0834139   0.0678415  -0.3847285), wk =   0.0185185
        k(    5) = (   0.0833816   0.0678415  -0.2304820), wk =   0.0185185
        k(    6) = (   0.0833493   0.0678415  -0.0762356), wk =   0.0185185
        k(    7) = (   0.0833170   0.2035245   0.0780109), wk =   0.0185185
        k(    8) = (   0.0832847   0.2035245   0.2322573), wk =   0.0185185
        k(    9) = (   0.0832524   0.2035245   0.3865038), wk =   0.0185185
        k(   10) = (   0.0834139   0.2035245  -0.3847285), wk =   0.0185185
        k(   11) = (   0.0833816   0.2035245  -0.2304820), wk =   0.0185185
        k(   12) = (   0.0833493   0.2035245  -0.0762356), wk =   0.0185185
        k(   13) = (   0.0833170   0.3392076   0.0780109), wk =   0.0185185
        k(   14) = (   0.0832847   0.3392076   0.2322573), wk =   0.0185185
        k(   15) = (   0.0832524   0.3392076   0.3865038), wk =   0.0185185
        k(   16) = (   0.0834139   0.3392076  -0.3847285), wk =   0.0185185
        k(   17) = (   0.0833816   0.3392076  -0.2304820), wk =   0.0185185
        k(   18) = (   0.0833493   0.3392076  -0.0762356), wk =   0.0185185
        k(   19) = (   0.2499833   0.0678415   0.0797862), wk =   0.0185185
        k(   20) = (   0.2499510   0.0678415   0.2340326), wk =   0.0185185
        k(   21) = (   0.2499187   0.0678415   0.3882791), wk =   0.0185185
        k(   22) = (   0.2500802   0.0678415  -0.3829532), wk =   0.0185185
        k(   23) = (   0.2500479   0.0678415  -0.2287067), wk =   0.0185185
        k(   24) = (   0.2500156   0.0678415  -0.0744603), wk =   0.0185185
        k(   25) = (   0.2499833   0.2035245   0.0797862), wk =   0.0185185
        k(   26) = (   0.2499510   0.2035245   0.2340326), wk =   0.0185185
        k(   27) = (   0.2499187   0.2035245   0.3882791), wk =   0.0185185
        k(   28) = (   0.2500802   0.2035245  -0.3829532), wk =   0.0185185
        k(   29) = (   0.2500479   0.2035245  -0.2287067), wk =   0.0185185
        k(   30) = (   0.2500156   0.2035245  -0.0744603), wk =   0.0185185
        k(   31) = (   0.2499833   0.3392076   0.0797862), wk =   0.0185185
        k(   32) = (   0.2499510   0.3392076   0.2340326), wk =   0.0185185
        k(   33) = (   0.2499187   0.3392076   0.3882791), wk =   0.0185185
        k(   34) = (   0.2500802   0.3392076  -0.3829532), wk =   0.0185185
        k(   35) = (   0.2500479   0.3392076  -0.2287067), wk =   0.0185185
        k(   36) = (   0.2500156   0.3392076  -0.0744603), wk =   0.0185185
        k(   37) = (   0.4166496   0.0678415   0.0815614), wk =   0.0185185
        k(   38) = (   0.4166173   0.0678415   0.2358079), wk =   0.0185185
        k(   39) = (   0.4165850   0.0678415   0.3900543), wk =   0.0185185
        k(   40) = (   0.4167465   0.0678415  -0.3811779), wk =   0.0185185
        k(   41) = (   0.4167142   0.0678415  -0.2269315), wk =   0.0185185
        k(   42) = (   0.4166819   0.0678415  -0.0726850), wk =   0.0185185
        k(   43) = (   0.4166496   0.2035245   0.0815614), wk =   0.0185185
        k(   44) = (   0.4166173   0.2035245   0.2358079), wk =   0.0185185
        k(   45) = (   0.4165850   0.2035245   0.3900543), wk =   0.0185185
        k(   46) = (   0.4167465   0.2035245  -0.3811779), wk =   0.0185185
        k(   47) = (   0.4167142   0.2035245  -0.2269315), wk =   0.0185185
        k(   48) = (   0.4166819   0.2035245  -0.0726850), wk =   0.0185185
        k(   49) = (   0.4166496   0.3392076   0.0815614), wk =   0.0185185
        k(   50) = (   0.4166173   0.3392076   0.2358079), wk =   0.0185185
        k(   51) = (   0.4165850   0.3392076   0.3900543), wk =   0.0185185
        k(   52) = (   0.4167465   0.3392076  -0.3811779), wk =   0.0185185
        k(   53) = (   0.4167142   0.3392076  -0.2269315), wk =   0.0185185
        k(   54) = (   0.4166819   0.3392076  -0.0726850), wk =   0.0185185

                       cryst. coord.
        k(    1) = (   0.0833333   0.0833333   0.0833333), wk =   0.0185185
        k(    2) = (   0.0833333   0.0833333   0.2500000), wk =   0.0185185
        k(    3) = (   0.0833333   0.0833333   0.4166667), wk =   0.0185185
        k(    4) = (   0.0833333   0.0833333  -0.4166667), wk =   0.0185185
        k(    5) = (   0.0833333   0.0833333  -0.2500000), wk =   0.0185185
        k(    6) = (   0.0833333   0.0833333  -0.0833333), wk =   0.0185185
        k(    7) = (   0.0833333   0.2500000   0.0833333), wk =   0.0185185
        k(    8) = (   0.0833333   0.2500000   0.2500000), wk =   0.0185185
        k(    9) = (   0.0833333   0.2500000   0.4166667), wk =   0.0185185
        k(   10) = (   0.0833333   0.2500000  -0.4166667), wk =   0.0185185
        k(   11) = (   0.0833333   0.2500000  -0.2500000), wk =   0.0185185
        k(   12) = (   0.0833333   0.2500000  -0.0833333), wk =   0.0185185
        k(   13) = (   0.0833333   0.4166667   0.0833333), wk =   0.0185185
        k(   14) = (   0.0833333   0.4166667   0.2500000), wk =   0.0185185
        k(   15) = (   0.0833333   0.4166667   0.4166667), wk =   0.0185185
        k(   16) = (   0.0833333   0.4166667  -0.4166667), wk =   0.0185185
        k(   17) = (   0.0833333   0.4166667  -0.2500000), wk =   0.0185185
        k(   18) = (   0.0833333   0.4166667  -0.0833333), wk =   0.0185185
        k(   19) = (   0.2500000   0.0833333   0.0833333), wk =   0.0185185
        k(   20) = (   0.2500000   0.0833333   0.2500000), wk =   0.0185185
        k(   21) = (   0.2500000   0.0833333   0.4166667), wk =   0.0185185
        k(   22) = (   0.2500000   0.0833333  -0.4166667), wk =   0.0185185
        k(   23) = (   0.2500000   0.0833333  -0.2500000), wk =   0.0185185
        k(   24) = (   0.2500000   0.0833333  -0.0833333), wk =   0.0185185
        k(   25) = (   0.2500000   0.2500000   0.0833333), wk =   0.0185185
        k(   26) = (   0.2500000   0.2500000   0.2500000), wk =   0.0185185
        k(   27) = (   0.2500000   0.2500000   0.4166667), wk =   0.0185185
        k(   28) = (   0.2500000   0.2500000  -0.4166667), wk =   0.0185185
        k(   29) = (   0.2500000   0.2500000  -0.2500000), wk =   0.0185185
        k(   30) = (   0.2500000   0.2500000  -0.0833333), wk =   0.0185185
        k(   31) = (   0.2500000   0.4166667   0.0833333), wk =   0.0185185
        k(   32) = (   0.2500000   0.4166667   0.2500000), wk =   0.0185185
        k(   33) = (   0.2500000   0.4166667   0.4166667), wk =   0.0185185
        k(   34) = (   0.2500000   0.4166667  -0.4166667), wk =   0.0185185
        k(   35) = (   0.2500000   0.4166667  -0.2500000), wk =   0.0185185
        k(   36) = (   0.2500000   0.4166667  -0.0833333), wk =   0.0185185
        k(   37) = (   0.4166667   0.0833333   0.0833333), wk =   0.0185185
        k(   38) = (   0.4166667   0.0833333   0.2500000), wk =   0.0185185
        k(   39) = (   0.4166667   0.0833333   0.4166667), wk =   0.0185185
        k(   40) = (   0.4166667   0.0833333  -0.4166667), wk =   0.0185185
        k(   41) = (   0.4166667   0.0833333  -0.2500000), wk =   0.0185185
        k(   42) = (   0.4166667   0.0833333  -0.0833333), wk =   0.0185185
        k(   43) = (   0.4166667   0.2500000   0.0833333), wk =   0.0185185
        k(   44) = (   0.4166667   0.2500000   0.2500000), wk =   0.0185185
        k(   45) = (   0.4166667   0.2500000   0.4166667), wk =   0.0185185
        k(   46) = (   0.4166667   0.2500000  -0.4166667), wk =   0.0185185
        k(   47) = (   0.4166667   0.2500000  -0.2500000), wk =   0.0185185
        k(   48) = (   0.4166667   0.2500000  -0.0833333), wk =   0.0185185
        k(   49) = (   0.4166667   0.4166667   0.0833333), wk =   0.0185185
        k(   50) = (   0.4166667   0.4166667   0.2500000), wk =   0.0185185
        k(   51) = (   0.4166667   0.4166667   0.4166667), wk =   0.0185185
        k(   52) = (   0.4166667   0.4166667  -0.4166667), wk =   0.0185185
        k(   53) = (   0.4166667   0.4166667  -0.2500000), wk =   0.0185185
        k(   54) = (   0.4166667   0.4166667  -0.0833333), wk =   0.0185185

     Dense  grid:   151731 G-vectors     FFT dimensions: (  64,  75,  72)

     Dynamical RAM for                 wfc:       0.78 MB

     Dynamical RAM for     wfc (w. buffer):      85.41 MB

     Dynamical RAM for             U proj.:       0.12 MB

     Dynamical RAM for  U proj. (w. buff.):      13.14 MB

     Dynamical RAM for           str. fact:       0.39 MB

     Dynamical RAM for           local pot:       0.00 MB

     Dynamical RAM for          nlocal pot:       2.46 MB

     Dynamical RAM for                qrad:      16.87 MB

     Dynamical RAM for          rho,v,vnew:       1.24 MB

     Dynamical RAM for               rhoin:       0.41 MB

     Dynamical RAM for            rho*nmix:       3.09 MB

     Dynamical RAM for           G-vectors:       0.41 MB

     Dynamical RAM for          h,s,v(r/c):       0.77 MB

     Dynamical RAM for          <psi|beta>:       0.20 MB

     Dynamical RAM for                 psi:       1.57 MB

     Dynamical RAM for                hpsi:       1.57 MB

     Dynamical RAM for      wfcinit/wfcrot:       1.66 MB

     Estimated static dynamical RAM per process >     121.47 MB

     Estimated max dynamical RAM per process >     128.66 MB

     Estimated total dynamical RAM >       3.02 GB
     Generating pointlists ...
     new r_m :   0.1839 (alat units)  1.5875 (a.u.) for type    1
     new r_m :   0.1830 (alat units)  1.5796 (a.u.) for type    2
     new r_m :   0.1603 (alat units)  1.3841 (a.u.) for type    3
     new r_m :   0.1603 (alat units)  1.3841 (a.u.) for type    4

     Initial potential from superposition of free atoms

     starting charge     106.9982, renormalised to     107.0000

     HUBBARD ENERGY =    0.2081  (Ry)

     STARTING HUBBARD OCCUPATIONS:

     =================== HUBBARD OCCUPATIONS ===================
     ------------------------ ATOM    1 ------------------------
     Tr[ns(  1)] (up, down, total) =   5.00000  0.00000  5.00000
     Atomic magnetic moment for atom   1 =   5.00000
     SPIN  1
     eigenvalues:
       1.000  1.000  1.000  1.000  1.000
     eigenvectors (columns):
       1.000  0.000  0.000  0.000  0.000
       0.000  1.000  0.000  0.000  0.000
       0.000  0.000  1.000  0.000  0.000
       0.000  0.000  0.000  1.000  0.000
       0.000  0.000  0.000  0.000  1.000
     occupation matrix ns (before diag.):
       1.000  0.000  0.000  0.000  0.000
       0.000  1.000  0.000  0.000  0.000
       0.000  0.000  1.000  0.000  0.000
       0.000  0.000  0.000  1.000  0.000
       0.000  0.000  0.000  0.000  1.000
     SPIN  2
     eigenvalues:
       0.000  0.000  0.000  0.000  0.000
     eigenvectors (columns):
       1.000  0.000  0.000  0.000  0.000
       0.000  1.000  0.000  0.000  0.000
       0.000  0.000  1.000  0.000  0.000
       0.000  0.000  0.000  1.000  0.000
       0.000  0.000  0.000  0.000  1.000
     occupation matrix ns (before diag.):
       0.000  0.000  0.000  0.000  0.000
       0.000  0.000  0.000  0.000  0.000
       0.000  0.000  0.000  0.000  0.000
       0.000  0.000  0.000  0.000  0.000
       0.000  0.000  0.000  0.000  0.000
     ------------------------ ATOM    2 ------------------------
     Tr[ns(  2)] (up, down, total) =   5.00000  1.00000  6.00000
     Atomic magnetic moment for atom   2 =   4.00000
     SPIN  1
     eigenvalues:
       1.000  1.000  1.000  1.000  1.000
     eigenvectors (columns):
       1.000  0.000  0.000  0.000  0.000
       0.000  1.000  0.000  0.000  0.000
       0.000  0.000  1.000  0.000  0.000
       0.000  0.000  0.000  1.000  0.000
       0.000  0.000  0.000  0.000  1.000
     occupation matrix ns (before diag.):
       1.000  0.000  0.000  0.000  0.000
       0.000  1.000  0.000  0.000  0.000
       0.000  0.000  1.000  0.000  0.000
       0.000  0.000  0.000  1.000  0.000
       0.000  0.000  0.000  0.000  1.000
     SPIN  2
     eigenvalues:
       0.200  0.200  0.200  0.200  0.200
     eigenvectors (columns):
       1.000  0.000  0.000  0.000  0.000
       0.000  1.000  0.000  0.000  0.000
       0.000  0.000  1.000  0.000  0.000
       0.000  0.000  0.000  1.000  0.000
       0.000  0.000  0.000  0.000  1.000
     occupation matrix ns (before diag.):
       0.200  0.000  0.000  0.000  0.000
       0.000  0.200  0.000  0.000  0.000
       0.000  0.000  0.200  0.000  0.000
       0.000  0.000  0.000  0.200  0.000
       0.000  0.000  0.000  0.000  0.200

     Number of occupied Hubbard levels =   11.0000

     Atomic wfc used for Hubbard projectors are orthogonalized

     Starting wfcs are   72 randomized atomic wfcs

     total cpu time spent up to now is        4.2 secs

     per-process dynamical memory:   171.5 Mb

     Self-consistent Calculation

     iteration #  1     ecut=   120.00 Ry     beta= 0.70
     Davidson diagonalization with overlap

---- Real-time Memory Report at c_bands before calling an iterative solver
           204 MiB given to the printing process from OS
           167 MiB allocation reported by mallinfo(arena+hblkhd)
        664460 MiB available memory on the node where the printing process lives
------------------
     ethr =  1.00E-02,  avg # of iterations =  2.0

     =================== HUBBARD OCCUPATIONS ===================
     ------------------------ ATOM    1 ------------------------
     Tr[ns(  1)] (up, down, total) =   4.96038  0.30360  5.26398
     Atomic magnetic moment for atom   1 =   4.65678
     SPIN  1
     eigenvalues:
       0.985  0.987  0.996  0.996  0.997
     eigenvectors (columns):
      -0.000  0.618 -0.643  0.000 -0.452
       0.000 -0.755 -0.646  0.000 -0.112
       0.545 -0.000 -0.000 -0.838  0.000
       0.000  0.221 -0.410  0.000  0.885
       0.838  0.000  0.000  0.545 -0.000
     occupation matrix ns (before diag.):
       0.993  0.004 -0.000 -0.002  0.000
       0.004  0.991 -0.000  0.001  0.000
      -0.000 -0.000  0.993 -0.000 -0.005
      -0.002  0.001 -0.000  0.996 -0.000
       0.000  0.000 -0.005 -0.000  0.988
     SPIN  2
     eigenvalues:
       0.035  0.043  0.048  0.088  0.090
     eigenvectors (columns):
      -0.295  0.742  0.000 -0.000  0.602
      -0.037  0.621  0.000  0.000 -0.783
      -0.000  0.000 -0.845  0.535  0.000
       0.955  0.253 -0.000 -0.000  0.156
       0.000 -0.000  0.535  0.845  0.000
     occupation matrix ns (before diag.):
       0.059 -0.022  0.000  0.007  0.000
      -0.022  0.072 -0.000 -0.006  0.000
       0.000 -0.000  0.060 -0.000  0.018
       0.007 -0.006 -0.000  0.036 -0.000
       0.000  0.000  0.018 -0.000  0.077
     ------------------------ ATOM    2 ------------------------
     Tr[ns(  2)] (up, down, total) =   4.97865  0.71321  5.69186
     Atomic magnetic moment for atom   2 =   4.26544
     SPIN  1
     eigenvalues:
       0.992  0.993  0.998  0.998  0.998
     eigenvectors (columns):
      -0.000  0.594 -0.657  0.000 -0.464
      -0.000 -0.766 -0.638  0.000 -0.077
       0.546 -0.000 -0.000 -0.838  0.000
       0.000  0.245 -0.401  0.000  0.882
       0.838  0.000  0.000  0.546 -0.000
     occupation matrix ns (before diag.):
       0.996  0.002 -0.000 -0.001  0.000
       0.002  0.995 -0.000  0.001  0.000
      -0.000 -0.000  0.996 -0.000 -0.003
      -0.001  0.001 -0.000  0.998 -0.000
       0.000  0.000 -0.003 -0.000  0.994
     SPIN  2
     eigenvalues:
       0.103  0.105  0.124  0.176  0.205
     eigenvectors (columns):
       0.222 -0.000  0.426 -0.000  0.877
      -0.730  0.000 -0.523 -0.000  0.440
       0.000  0.731  0.000 -0.682 -0.000
       0.646 -0.000 -0.738 -0.000  0.195
       0.000  0.682  0.000  0.731  0.000
     occupation matrix ns (before diag.):
       0.186  0.035 -0.000  0.011  0.000
       0.035  0.129 -0.000  0.017  0.000
      -0.000 -0.000  0.138  0.000 -0.035
       0.011  0.017  0.000  0.119 -0.000
       0.000  0.000 -0.035 -0.000  0.143

     Number of occupied Hubbard levels =   10.9558

     HUBBARD ENERGY =    0.2174  (Ry)

     total cpu time spent up to now is       14.6 secs

     total energy              =   -1034.35798877 Ry
     estimated scf accuracy    <       4.17756075 Ry

     total magnetization       =     9.01 Bohr mag/cell
     absolute magnetization    =     9.43 Bohr mag/cell

     iteration #  2     ecut=   120.00 Ry     beta= 0.70
     Davidson diagonalization with overlap

---- Real-time Memory Report at c_bands before calling an iterative solver
           213 MiB given to the printing process from OS
           172 MiB allocation reported by mallinfo(arena+hblkhd)
        664279 MiB available memory on the node where the printing process lives
------------------
     ethr =  3.90E-03,  avg # of iterations =  2.0

     =================== HUBBARD OCCUPATIONS ===================
     ------------------------ ATOM    1 ------------------------
     Tr[ns(  1)] (up, down, total) =   4.92748  0.33091  5.25840
     Atomic magnetic moment for atom   1 =   4.59657
     SPIN  1
     eigenvalues:
       0.972  0.972  0.994  0.994  0.995
     eigenvectors (columns):
      -0.000 -0.598 -0.758  0.000  0.260
       0.000  0.769 -0.634  0.000 -0.082
       0.528 -0.000 -0.000 -0.849 -0.000
      -0.000 -0.227 -0.151  0.000 -0.962
       0.849 -0.000  0.000  0.528  0.000
     occupation matrix ns (before diag.):
       0.986  0.010 -0.000 -0.003  0.000
       0.010  0.981 -0.000  0.004  0.000
      -0.000 -0.000  0.988 -0.000 -0.010
      -0.003  0.004 -0.000  0.994 -0.000
       0.000  0.000 -0.010 -0.000  0.978
     SPIN  2
     eigenvalues:
       0.035  0.036  0.038  0.109  0.113
     eigenvectors (columns):
       0.825  0.000  0.143  0.000 -0.547
       0.482  0.000  0.328  0.000  0.812
       0.000 -0.822  0.000  0.569 -0.000
      -0.295 -0.000  0.934 -0.000 -0.202
      -0.000  0.569 -0.000  0.822 -0.000
     occupation matrix ns (before diag.):
       0.058 -0.035  0.000  0.009  0.000
      -0.035  0.087 -0.000 -0.012  0.000
       0.000 -0.000  0.060 -0.000  0.034
       0.009 -0.012 -0.000  0.041 -0.000
       0.000  0.000  0.034 -0.000  0.086
     ------------------------ ATOM    2 ------------------------
     Tr[ns(  2)] (up, down, total) =   4.97332  0.58050  5.55382
     Atomic magnetic moment for atom   2 =   4.39282
     SPIN  1
     eigenvalues:
       0.990  0.990  0.998  0.998  0.998
     eigenvectors (columns):
      -0.000  0.577 -0.733  0.000 -0.361
      -0.000 -0.778 -0.628  0.000  0.029
       0.535 -0.000 -0.000 -0.845  0.000
       0.000  0.248 -0.264  0.000  0.932
       0.845 -0.000  0.000  0.535 -0.000
     occupation matrix ns (before diag.):
       0.995  0.003 -0.000 -0.001  0.000
       0.003  0.993 -0.000  0.001  0.000
      -0.000 -0.000  0.995 -0.000 -0.004
      -0.001  0.001 -0.000  0.997 -0.000
       0.000  0.000 -0.004 -0.000  0.992
     SPIN  2
     eigenvalues:
       0.054  0.073  0.132  0.137  0.185
     eigenvectors (columns):
      -0.215  0.000  0.190 -0.000  0.958
       0.101  0.000 -0.971  0.000  0.216
       0.000  0.939  0.000  0.343 -0.000
       0.971  0.000  0.143 -0.000  0.190
       0.000 -0.343  0.000  0.939  0.000
     occupation matrix ns (before diag.):
       0.177  0.013 -0.000  0.026  0.000
       0.013  0.133 -0.000 -0.005  0.000
      -0.000 -0.000  0.081 -0.000  0.020
       0.026 -0.005 -0.000  0.060 -0.000
       0.000  0.000  0.020 -0.000  0.129

     Number of occupied Hubbard levels =   10.8122

     HUBBARD ENERGY =    0.2072  (Ry)

     total cpu time spent up to now is       24.7 secs

     total energy              =   -1035.11907763 Ry
     estimated scf accuracy    <       0.22199363 Ry

     total magnetization       =     9.06 Bohr mag/cell
     absolute magnetization    =     9.70 Bohr mag/cell

     iteration #  3     ecut=   120.00 Ry     beta= 0.70
     Davidson diagonalization with overlap

---- Real-time Memory Report at c_bands before calling an iterative solver
           214 MiB given to the printing process from OS
           172 MiB allocation reported by mallinfo(arena+hblkhd)
        664141 MiB available memory on the node where the printing process lives
------------------
     ethr =  2.07E-04,  avg # of iterations =  6.5

     =================== HUBBARD OCCUPATIONS ===================
     ------------------------ ATOM    1 ------------------------
     Tr[ns(  1)] (up, down, total) =   4.92642  0.29737  5.22378
     Atomic magnetic moment for atom   1 =   4.62905
     SPIN  1
     eigenvalues:
       0.971  0.972  0.994  0.994  0.995
     eigenvectors (columns):
      -0.000 -0.601 -0.743  0.000  0.295
       0.000  0.767 -0.639  0.000 -0.048
       0.534 -0.000 -0.000 -0.845 -0.000
       0.000 -0.224 -0.198  0.000 -0.954
       0.845 -0.000  0.000  0.534  0.000
     occupation matrix ns (before diag.):
       0.986  0.010 -0.000 -0.003  0.000
       0.010  0.981 -0.000  0.004  0.000
      -0.000 -0.000  0.988 -0.000 -0.011
      -0.003  0.004 -0.000  0.994 -0.000
       0.000  0.000 -0.011 -0.000  0.978
     SPIN  2
     eigenvalues:
       0.029  0.031  0.033  0.101  0.102
     eigenvectors (columns):
       0.838  0.000  0.074 -0.000 -0.541
       0.501  0.000  0.286  0.000  0.817
       0.000 -0.816  0.000  0.578 -0.000
      -0.215  0.000  0.955 -0.000 -0.202
      -0.000  0.578 -0.000  0.816 -0.000
     occupation matrix ns (before diag.):
       0.051 -0.032  0.000  0.008  0.000
      -0.032  0.078 -0.000 -0.011  0.000
       0.000 -0.000  0.055 -0.000  0.033
       0.008 -0.011 -0.000  0.036 -0.000
       0.000  0.000  0.033 -0.000  0.078
     ------------------------ ATOM    2 ------------------------
     Tr[ns(  2)] (up, down, total) =   4.97597  0.93234  5.90830
     Atomic magnetic moment for atom   2 =   4.04363
     SPIN  1
     eigenvalues:
       0.991  0.992  0.998  0.998  0.998
     eigenvectors (columns):
      -0.000 -0.574 -0.406 -0.000 -0.711
      -0.000  0.780 -0.536 -0.000 -0.324
       0.550  0.000 -0.000 -0.835  0.000
       0.000 -0.249 -0.740  0.000  0.624
       0.835  0.000  0.000  0.550 -0.000
     occupation matrix ns (before diag.):
       0.996  0.003 -0.000 -0.001  0.000
       0.003  0.994 -0.000  0.001  0.000
      -0.000 -0.000  0.996 -0.000 -0.003
      -0.001  0.001 -0.000  0.997 -0.000
       0.000  0.000 -0.003 -0.000  0.993
     SPIN  2
     eigenvalues:
       0.053  0.062  0.158  0.161  0.498
     eigenvectors (columns):
       0.202  0.000 -0.363 -0.000 -0.910
      -0.150 -0.000  0.907  0.000 -0.395
       0.000 -0.919 -0.000  0.393  0.000
      -0.968 -0.000 -0.216 -0.000 -0.129
      -0.000  0.393 -0.000  0.919 -0.000
     occupation matrix ns (before diag.):
       0.435  0.125 -0.000  0.061  0.000
       0.125  0.209 -0.000  0.002  0.000
      -0.000 -0.000  0.077 -0.000  0.036
       0.061  0.002 -0.000  0.065 -0.000
       0.000  0.000  0.036 -0.000  0.146

     Number of occupied Hubbard levels =   11.1321

     HUBBARD ENERGY =    0.2264  (Ry)

     total cpu time spent up to now is       36.3 secs

     total energy              =   -1035.17440580 Ry
     estimated scf accuracy    <       0.06169787 Ry

     total magnetization       =     9.00 Bohr mag/cell
     absolute magnetization    =     9.40 Bohr mag/cell

     iteration #  4     ecut=   120.00 Ry     beta= 0.70
     Davidson diagonalization with overlap

---- Real-time Memory Report at c_bands before calling an iterative solver
           215 MiB given to the printing process from OS
           173 MiB allocation reported by mallinfo(arena+hblkhd)
        664086 MiB available memory on the node where the printing process lives
------------------
     c_bands:  1 eigenvalues not converged
     ethr =  5.77E-05,  avg # of iterations =  5.1
     Minimization algorithm failed to find Fermi energy: reverting to bisection
     Possible cause: smearing is larger than the electronic band-gap.

     =================== HUBBARD OCCUPATIONS ===================
     ------------------------ ATOM    1 ------------------------
     Tr[ns(  1)] (up, down, total) =   4.92556  0.27642  5.20198
     Atomic magnetic moment for atom   1 =   4.64914
     SPIN  1
     eigenvalues:
       0.971  0.971  0.994  0.994  0.995
     eigenvectors (columns):
      -0.000 -0.601 -0.736  0.000  0.311
       0.000  0.767 -0.641  0.000 -0.033
       0.536 -0.000 -0.000 -0.844 -0.000
       0.000 -0.223 -0.219  0.000 -0.950
       0.844 -0.000  0.000  0.536  0.000
     occupation matrix ns (before diag.):
       0.986  0.010 -0.000 -0.003  0.000
       0.010  0.981 -0.000  0.004  0.000
      -0.000 -0.000  0.988 -0.000 -0.011
      -0.003  0.004 -0.000  0.994 -0.000
       0.000  0.000 -0.011 -0.000  0.977
     SPIN  2
     eigenvalues:
       0.027  0.028  0.031  0.095  0.095
     eigenvectors (columns):
       0.838  0.000  0.115 -0.534  0.000
       0.480  0.000  0.311  0.820 -0.000
       0.000 -0.813  0.000  0.000  0.583
      -0.261 -0.000  0.943 -0.206 -0.000
      -0.000  0.583 -0.000  0.000  0.813
     occupation matrix ns (before diag.):
       0.047 -0.029  0.000  0.008  0.000
      -0.029  0.073 -0.000 -0.010  0.000
       0.000 -0.000  0.051 -0.000  0.032
       0.008 -0.010 -0.000  0.033 -0.000
       0.000  0.000  0.032 -0.000  0.073
     ------------------------ ATOM    2 ------------------------
     Tr[ns(  2)] (up, down, total) =   4.97574  1.27956  6.25530
     Atomic magnetic moment for atom   2 =   3.69618
     SPIN  1
     eigenvalues:
       0.991  0.991  0.998  0.998  0.998
     eigenvectors (columns):
      -0.000 -0.578 -0.378 -0.000 -0.723
      -0.000  0.777 -0.525 -0.000 -0.347
       0.551  0.000 -0.000 -0.834  0.000
       0.000 -0.248 -0.763  0.000  0.597
       0.834  0.000  0.000  0.551 -0.000
     occupation matrix ns (before diag.):
       0.996  0.003 -0.000 -0.001  0.000
       0.003  0.994 -0.000  0.001  0.000
      -0.000 -0.000  0.996 -0.000 -0.003
      -0.001  0.001 -0.000  0.997 -0.000
       0.000  0.000 -0.003 -0.000  0.993
     SPIN  2
     eigenvalues:
       0.036  0.041  0.129  0.132  0.942
     eigenvectors (columns):
      -0.000  0.198  0.404 -0.000 -0.893
      -0.000 -0.156 -0.887  0.000 -0.435
      -0.848 -0.000  0.000  0.530  0.000
       0.000 -0.968  0.225 -0.000 -0.113
       0.530  0.000  0.000  0.848 -0.000
     occupation matrix ns (before diag.):
       0.774  0.319 -0.000  0.099  0.000
       0.319  0.281 -0.000  0.027  0.000
      -0.000 -0.000  0.063 -0.000  0.044
       0.099  0.027 -0.000  0.057 -0.000
       0.000  0.000  0.044 -0.000  0.105

     Number of occupied Hubbard levels =   11.4573

     HUBBARD ENERGY =    0.2189  (Ry)

     total cpu time spent up to now is       46.4 secs

     total energy              =   -1035.16193502 Ry
     estimated scf accuracy    <       0.21488086 Ry

     total magnetization       =     9.00 Bohr mag/cell
     absolute magnetization    =     9.03 Bohr mag/cell

     iteration #  5     ecut=   120.00 Ry     beta= 0.70
     Davidson diagonalization with overlap

---- Real-time Memory Report at c_bands before calling an iterative solver
           216 MiB given to the printing process from OS
           173 MiB allocation reported by mallinfo(arena+hblkhd)
        664052 MiB available memory on the node where the printing process lives
------------------
     ethr =  5.77E-05,  avg # of iterations =  1.6

     =================== HUBBARD OCCUPATIONS ===================
     ------------------------ ATOM    1 ------------------------
     Tr[ns(  1)] (up, down, total) =   4.92780  0.27898  5.20678
     Atomic magnetic moment for atom   1 =   4.64882
     SPIN  1
     eigenvalues:
       0.972  0.972  0.994  0.994  0.995
     eigenvectors (columns):
      -0.000 -0.603 -0.728  0.000  0.326
       0.000  0.766 -0.642  0.000 -0.017
       0.539 -0.000 -0.000 -0.842 -0.000
       0.000 -0.222 -0.240  0.000 -0.945
       0.842 -0.000  0.000  0.539  0.000
     occupation matrix ns (before diag.):
       0.986  0.010 -0.000 -0.003  0.000
       0.010  0.981 -0.000  0.004  0.000
      -0.000 -0.000  0.988 -0.000 -0.010
      -0.003  0.004 -0.000  0.994 -0.000
       0.000  0.000 -0.010 -0.000  0.978
     SPIN  2
     eigenvalues:
       0.027  0.029  0.031  0.096  0.096
     eigenvectors (columns):
       0.837  0.000  0.101 -0.537  0.000
       0.488  0.000  0.302  0.819 -0.000
       0.000 -0.813  0.000  0.000  0.583
      -0.245  0.000  0.948 -0.203  0.000
      -0.000  0.583 -0.000  0.000  0.813
     occupation matrix ns (before diag.):
       0.047 -0.030  0.000  0.008  0.000
      -0.030  0.074 -0.000 -0.010  0.000
       0.000 -0.000  0.052 -0.000  0.032
       0.008 -0.010 -0.000  0.034 -0.000
       0.000  0.000  0.032 -0.000  0.073
     ------------------------ ATOM    2 ------------------------
     Tr[ns(  2)] (up, down, total) =   4.97660  1.20115  6.17775
     Atomic magnetic moment for atom   2 =   3.77545
     SPIN  1
     eigenvalues:
       0.992  0.992  0.997  0.998  0.998
     eigenvectors (columns):
       0.000  0.574 -0.117  0.000 -0.810
       0.000 -0.779 -0.383  0.000 -0.497
      -0.553 -0.000  0.000  0.833  0.000
      -0.000  0.252 -0.916  0.000  0.311
      -0.833 -0.000 -0.000 -0.553 -0.000
     occupation matrix ns (before diag.):
       0.996  0.002 -0.000 -0.001  0.000
       0.002  0.994 -0.000  0.001  0.000
      -0.000 -0.000  0.996 -0.000 -0.003
      -0.001  0.001 -0.000  0.997 -0.000
       0.000  0.000 -0.003 -0.000  0.994
     SPIN  2
     eigenvalues:
       0.048  0.051  0.161  0.171  0.770
     eigenvectors (columns):
       0.205  0.000  0.321 -0.000 -0.925
      -0.154 -0.000 -0.922  0.000 -0.354
       0.000 -0.904  0.000  0.428  0.000
      -0.967 -0.000  0.215 -0.000 -0.139
      -0.000  0.428  0.000  0.904 -0.000
     occupation matrix ns (before diag.):
       0.677  0.203 -0.000  0.101  0.000
       0.203  0.235 -0.000  0.013  0.000
      -0.000 -0.000  0.073 -0.000  0.046
       0.101  0.013 -0.000  0.067 -0.000
       0.000  0.000  0.046 -0.000  0.149

     Number of occupied Hubbard levels =   11.3845

     HUBBARD ENERGY =    0.2204  (Ry)

     total cpu time spent up to now is       54.8 secs

     total energy              =   -1035.17461143 Ry
     estimated scf accuracy    <       0.20981923 Ry

     total magnetization       =     9.00 Bohr mag/cell
     absolute magnetization    =     9.12 Bohr mag/cell

     iteration #  6     ecut=   120.00 Ry     beta= 0.70
     Davidson diagonalization with overlap

---- Real-time Memory Report at c_bands before calling an iterative solver
           216 MiB given to the printing process from OS
           173 MiB allocation reported by mallinfo(arena+hblkhd)
        664016 MiB available memory on the node where the printing process lives
------------------
     ethr =  5.77E-05,  avg # of iterations =  1.0

     =================== HUBBARD OCCUPATIONS ===================
     ------------------------ ATOM    1 ------------------------
     Tr[ns(  1)] (up, down, total) =   4.92747  0.27684  5.20431
     Atomic magnetic moment for atom   1 =   4.65063
     SPIN  1
     eigenvalues:
       0.971  0.972  0.994  0.994  0.995
     eigenvectors (columns):
      -0.000 -0.602 -0.729  0.000  0.325
       0.000  0.767 -0.642  0.000 -0.019
       0.539 -0.000 -0.000 -0.842 -0.000
       0.000 -0.222 -0.238  0.000 -0.945
       0.842 -0.000  0.000  0.539  0.000
     occupation matrix ns (before diag.):
       0.986  0.010 -0.000 -0.003  0.000
       0.010  0.981 -0.000  0.004  0.000
      -0.000 -0.000  0.988 -0.000 -0.010
      -0.003  0.004 -0.000  0.994 -0.000
       0.000  0.000 -0.010 -0.000  0.978
     SPIN  2
     eigenvalues:
       0.027  0.029  0.031  0.095  0.095
     eigenvectors (columns):
       0.837  0.000  0.116 -0.535  0.000
       0.481  0.000  0.311  0.819 -0.000
       0.000 -0.811  0.000  0.000  0.584
      -0.262 -0.000  0.943 -0.205 -0.000
      -0.000  0.584 -0.000  0.000  0.811
     occupation matrix ns (before diag.):
       0.047 -0.030  0.000  0.008  0.000
      -0.030  0.073 -0.000 -0.010  0.000
       0.000 -0.000  0.051 -0.000  0.032
       0.008 -0.010 -0.000  0.033 -0.000
       0.000  0.000  0.032 -0.000  0.073
     ------------------------ ATOM    2 ------------------------
     Tr[ns(  2)] (up, down, total) =   4.97642  1.25282  6.22923
     Atomic magnetic moment for atom   2 =   3.72360
     SPIN  1
     eigenvalues:
       0.992  0.992  0.998  0.998  0.998
     eigenvectors (columns):
      -0.000  0.576  0.127 -0.000 -0.808
      -0.000 -0.778  0.389 -0.000 -0.493
       0.553 -0.000 -0.000 -0.833  0.000
       0.000  0.251  0.913 -0.000  0.322
       0.833 -0.000  0.000  0.553 -0.000
     occupation matrix ns (before diag.):
       0.996  0.003 -0.000 -0.001  0.000
       0.003  0.994 -0.000  0.001  0.000
      -0.000 -0.000  0.996 -0.000 -0.003
      -0.001  0.001 -0.000  0.997 -0.000
       0.000  0.000 -0.003 -0.000  0.994
     SPIN  2
     eigenvalues:
       0.042  0.046  0.148  0.151  0.867
     eigenvectors (columns):
      -0.000  0.200  0.401 -0.000 -0.894
       0.000 -0.155 -0.888  0.000 -0.433
      -0.863 -0.000  0.000  0.504  0.000
       0.000 -0.967  0.225 -0.000 -0.116
       0.504  0.000  0.000  0.863 -0.000
     occupation matrix ns (before diag.):
       0.719  0.282 -0.000  0.094  0.000
       0.282  0.280 -0.000  0.021  0.000
      -0.000 -0.000  0.069 -0.000  0.047
       0.094  0.021 -0.000  0.062 -0.000
       0.000  0.000  0.047 -0.000  0.123

     Number of occupied Hubbard levels =   11.4335

     HUBBARD ENERGY =    0.1312  (Ry)

     total cpu time spent up to now is       62.7 secs

     total energy              =   -1035.20785758 Ry
     estimated scf accuracy    <       0.26037146 Ry

     total magnetization       =     9.00 Bohr mag/cell
     absolute magnetization    =     9.06 Bohr mag/cell

     iteration #  7     ecut=   120.00 Ry     beta= 0.70
     Davidson diagonalization with overlap

---- Real-time Memory Report at c_bands before calling an iterative solver
           216 MiB given to the printing process from OS
           174 MiB allocation reported by mallinfo(arena+hblkhd)
        663975 MiB available memory on the node where the printing process lives
------------------
     c_bands:  1 eigenvalues not converged
     c_bands:  1 eigenvalues not converged
     c_bands:  1 eigenvalues not converged
     ethr =  5.77E-05,  avg # of iterations =  7.5

     =================== HUBBARD OCCUPATIONS ===================
     ------------------------ ATOM    1 ------------------------
     Tr[ns(  1)] (up, down, total) =   4.91905  0.27060  5.18966
     Atomic magnetic moment for atom   1 =   4.64845
     SPIN  1
     eigenvalues:
       0.968  0.969  0.994  0.994  0.995
     eigenvectors (columns):
      -0.000 -0.595  0.752  0.000 -0.283
       0.000  0.771  0.634  0.000  0.064
       0.532 -0.000  0.000 -0.847  0.000
       0.000 -0.227  0.180  0.000  0.957
       0.847 -0.000 -0.000  0.532 -0.000
     occupation matrix ns (before diag.):
       0.985  0.011 -0.000 -0.004  0.000
       0.011  0.979 -0.000  0.004  0.000
      -0.000 -0.000  0.987 -0.000 -0.012
      -0.004  0.004 -0.000  0.993 -0.000
       0.000  0.000 -0.012 -0.000  0.975
     SPIN  2
     eigenvalues:
       0.027  0.027  0.030  0.093  0.094
     eigenvectors (columns):
      -0.839  0.000  0.110  0.532  0.000
      -0.480  0.000  0.309 -0.821 -0.000
      -0.000 -0.814  0.000 -0.000  0.581
       0.254 -0.000  0.945  0.207 -0.000
       0.000  0.581 -0.000 -0.000  0.814
     occupation matrix ns (before diag.):
       0.046 -0.029  0.000  0.008  0.000
      -0.029  0.072 -0.000 -0.010  0.000
       0.000 -0.000  0.049 -0.000  0.032
       0.008 -0.010 -0.000  0.033 -0.000
       0.000  0.000  0.032 -0.000  0.071
     ------------------------ ATOM    2 ------------------------
     Tr[ns(  2)] (up, down, total) =   4.96128  1.19706  6.15834
     Atomic magnetic moment for atom   2 =   3.76422
     SPIN  1
     eigenvalues:
       0.986  0.986  0.995  0.997  0.998
     eigenvectors (columns):
       0.678  0.000  0.708 -0.000 -0.198
      -0.700 -0.000  0.704  0.000  0.123
      -0.000  0.572  0.000 -0.820  0.000
       0.226  0.000  0.055  0.000  0.973
      -0.000  0.820 -0.000  0.572 -0.000
     occupation matrix ns (before diag.):
       0.991  0.004 -0.000 -0.002  0.000
       0.004  0.990 -0.000  0.002  0.000
      -0.000 -0.000  0.994 -0.000 -0.005
      -0.002  0.002 -0.000  0.997 -0.000
       0.000  0.000 -0.005 -0.000  0.990
     SPIN  2
     eigenvalues:
       0.024  0.027  0.081  0.087  0.979
     eigenvectors (columns):
      -0.000  0.202  0.357 -0.000 -0.912
      -0.000 -0.182 -0.901  0.000 -0.393
      -0.850 -0.000  0.000  0.526  0.000
       0.000 -0.962  0.246 -0.000 -0.117
       0.526  0.000  0.000  0.850 -0.000
     occupation matrix ns (before diag.):
       0.825  0.324 -0.000  0.106  0.000
       0.324  0.218 -0.000  0.032  0.000
      -0.000 -0.000  0.041 -0.000  0.028
       0.106  0.032 -0.000  0.044 -0.000
       0.000  0.000  0.028 -0.000  0.069

     Number of occupied Hubbard levels =   11.3480

     HUBBARD ENERGY =    0.1288  (Ry)

     total cpu time spent up to now is       76.5 secs

     total energy              =   -1035.27915636 Ry
     estimated scf accuracy    <       0.00431737 Ry

     total magnetization       =     9.00 Bohr mag/cell
     absolute magnetization    =     9.02 Bohr mag/cell

     iteration #  8     ecut=   120.00 Ry     beta= 0.70
     Davidson diagonalization with overlap

---- Real-time Memory Report at c_bands before calling an iterative solver
           217 MiB given to the printing process from OS
           174 MiB allocation reported by mallinfo(arena+hblkhd)
        663936 MiB available memory on the node where the printing process lives
------------------
     c_bands:  1 eigenvalues not converged
     ethr =  4.03E-06,  avg # of iterations =  9.6

     =================== HUBBARD OCCUPATIONS ===================
     ------------------------ ATOM    1 ------------------------
     Tr[ns(  1)] (up, down, total) =   4.91991  0.26993  5.18985
     Atomic magnetic moment for atom   1 =   4.64998
     SPIN  1
     eigenvalues:
       0.968  0.969  0.994  0.994  0.995
     eigenvectors (columns):
      -0.000 -0.594  0.750  0.000 -0.291
       0.000  0.771  0.634  0.000  0.058
       0.534 -0.000  0.000 -0.845  0.000
       0.000 -0.228  0.190  0.000  0.955
       0.845 -0.000 -0.000  0.534 -0.000
     occupation matrix ns (before diag.):
       0.985  0.011 -0.000 -0.004  0.000
       0.011  0.979 -0.000  0.004  0.000
      -0.000 -0.000  0.987 -0.000 -0.012
      -0.004  0.004 -0.000  0.993 -0.000
       0.000  0.000 -0.012 -0.000  0.976
     SPIN  2
     eigenvalues:
       0.027  0.027  0.030  0.093  0.094
     eigenvectors (columns):
      -0.839  0.000  0.109  0.532  0.000
      -0.480  0.000  0.309 -0.821 -0.000
      -0.000 -0.814  0.000 -0.000  0.581
       0.254 -0.000  0.945  0.207 -0.000
       0.000  0.581 -0.000 -0.000  0.814
     occupation matrix ns (before diag.):
       0.045 -0.029  0.000  0.008  0.000
      -0.029  0.072 -0.000 -0.010  0.000
       0.000 -0.000  0.049 -0.000  0.032
       0.008 -0.010 -0.000  0.033 -0.000
       0.000  0.000  0.032 -0.000  0.071
     ------------------------ ATOM    2 ------------------------
     Tr[ns(  2)] (up, down, total) =   4.96139  1.20284  6.16423
     Atomic magnetic moment for atom   2 =   3.75854
     SPIN  1
     eigenvalues:
       0.986  0.986  0.995  0.997  0.998
     eigenvectors (columns):
       0.683  0.000 -0.702 -0.000 -0.203
      -0.695 -0.000 -0.710  0.000  0.117
      -0.000  0.579 -0.000 -0.815  0.000
       0.227  0.000 -0.061  0.000  0.972
      -0.000  0.815  0.000  0.579 -0.000
     occupation matrix ns (before diag.):
       0.991  0.004 -0.000 -0.002  0.000
       0.004  0.990 -0.000  0.002  0.000
      -0.000 -0.000  0.994 -0.000 -0.005
      -0.002  0.002 -0.000  0.997 -0.000
       0.000  0.000 -0.005 -0.000  0.990
     SPIN  2
     eigenvalues:
       0.023  0.027  0.083  0.090  0.980
     eigenvectors (columns):
      -0.000  0.203  0.339 -0.000 -0.919
      -0.000 -0.188 -0.907  0.000 -0.377
      -0.854 -0.000  0.000  0.520  0.000
       0.000 -0.961  0.249 -0.000 -0.120
       0.520  0.000  0.000  0.854 -0.000
     occupation matrix ns (before diag.):
       0.837  0.312 -0.000  0.110  0.000
       0.312  0.208 -0.000  0.031  0.000
      -0.000 -0.000  0.041 -0.000  0.029
       0.110  0.031 -0.000  0.045 -0.000
       0.000  0.000  0.029 -0.000  0.072

     Number of occupied Hubbard levels =   11.3541

     HUBBARD ENERGY =    0.1514  (Ry)

     total cpu time spent up to now is       90.1 secs

     total energy              =   -1035.27728318 Ry
     estimated scf accuracy    <       0.00123879 Ry

     total magnetization       =     9.00 Bohr mag/cell
     absolute magnetization    =     9.02 Bohr mag/cell

     iteration #  9     ecut=   120.00 Ry     beta= 0.70
     Davidson diagonalization with overlap

---- Real-time Memory Report at c_bands before calling an iterative solver
           218 MiB given to the printing process from OS
           175 MiB allocation reported by mallinfo(arena+hblkhd)
        663896 MiB available memory on the node where the printing process lives
------------------
     c_bands:  1 eigenvalues not converged
     c_bands:  1 eigenvalues not converged
     ethr =  1.16E-06,  avg # of iterations =  6.5

     =================== HUBBARD OCCUPATIONS ===================
     ------------------------ ATOM    1 ------------------------
     Tr[ns(  1)] (up, down, total) =   4.92181  0.27098  5.19279
     Atomic magnetic moment for atom   1 =   4.65083
     SPIN  1
     eigenvalues:
       0.969  0.970  0.994  0.994  0.995
     eigenvectors (columns):
      -0.000 -0.595  0.746  0.000 -0.299
       0.000  0.771  0.635  0.000  0.049
       0.536 -0.000  0.000 -0.844  0.000
       0.000 -0.227  0.201  0.000  0.953
       0.844 -0.000 -0.000  0.536 -0.000
     occupation matrix ns (before diag.):
       0.985  0.011 -0.000 -0.004  0.000
       0.011  0.979 -0.000  0.004  0.000
      -0.000 -0.000  0.987 -0.000 -0.011
      -0.004  0.004 -0.000  0.994 -0.000
       0.000  0.000 -0.011 -0.000  0.976
     SPIN  2
     eigenvalues:
       0.027  0.027  0.030  0.093  0.094
     eigenvectors (columns):
       0.839  0.000  0.112 -0.532  0.000
       0.479  0.000  0.311  0.821 -0.000
       0.000 -0.813  0.000  0.000  0.582
      -0.257 -0.000  0.944 -0.207 -0.000
      -0.000  0.582 -0.000  0.000  0.813
     occupation matrix ns (before diag.):
       0.046 -0.029  0.000  0.008  0.000
      -0.029  0.072 -0.000 -0.010  0.000
       0.000 -0.000  0.050 -0.000  0.032
       0.008 -0.010 -0.000  0.033 -0.000
       0.000  0.000  0.032 -0.000  0.071
     ------------------------ ATOM    2 ------------------------
     Tr[ns(  2)] (up, down, total) =   4.96505  1.21554  6.18059
     Atomic magnetic moment for atom   2 =   3.74951
     SPIN  1
     eigenvalues:
       0.987  0.987  0.995  0.997  0.998
     eigenvectors (columns):
       0.665  0.000  0.716 -0.000 -0.215
      -0.711 -0.000  0.694  0.000  0.115
      -0.000  0.576  0.000 -0.817  0.000
       0.231  0.000  0.076  0.000  0.970
      -0.000  0.817 -0.000  0.576 -0.000
     occupation matrix ns (before diag.):
       0.992  0.004 -0.000 -0.002  0.000
       0.004  0.991 -0.000  0.002  0.000
      -0.000 -0.000  0.994 -0.000 -0.005
      -0.002  0.002 -0.000  0.997 -0.000
       0.000  0.000 -0.005 -0.000  0.991
     SPIN  2
     eigenvalues:
       0.024  0.029  0.088  0.095  0.979
     eigenvectors (columns):
      -0.000  0.201  0.321 -0.000 -0.926
      -0.000 -0.187 -0.915  0.000 -0.358
      -0.856 -0.000  0.000  0.517  0.000
       0.000 -0.962  0.245 -0.000 -0.124
       0.517  0.000  0.000  0.856 -0.000
     occupation matrix ns (before diag.):
       0.849  0.297 -0.000  0.114  0.000
       0.297  0.200 -0.000  0.029  0.000
      -0.000 -0.000  0.043 -0.000  0.032
       0.114  0.029 -0.000  0.047 -0.000
       0.000  0.000  0.032 -0.000  0.076

     Number of occupied Hubbard levels =   11.3734

     HUBBARD ENERGY =    0.1443  (Ry)

     total cpu time spent up to now is      103.6 secs

     total energy              =   -1035.27811465 Ry
     estimated scf accuracy    <       0.00426282 Ry

     total magnetization       =     9.00 Bohr mag/cell
     absolute magnetization    =     9.02 Bohr mag/cell

     iteration # 10     ecut=   120.00 Ry     beta= 0.70
     Davidson diagonalization with overlap

---- Real-time Memory Report at c_bands before calling an iterative solver
           218 MiB given to the printing process from OS
           175 MiB allocation reported by mallinfo(arena+hblkhd)
        663847 MiB available memory on the node where the printing process lives
------------------
     ethr =  1.16E-06,  avg # of iterations =  2.0

     =================== HUBBARD OCCUPATIONS ===================
     ------------------------ ATOM    1 ------------------------
     Tr[ns(  1)] (up, down, total) =   4.92217  0.27167  5.19383
     Atomic magnetic moment for atom   1 =   4.65050
     SPIN  1
     eigenvalues:
       0.969  0.970  0.994  0.994  0.995
     eigenvectors (columns):
      -0.000 -0.595  0.747  0.000 -0.298
       0.000  0.771  0.635  0.000  0.051
       0.536 -0.000  0.000 -0.844  0.000
       0.000 -0.227  0.199  0.000  0.953
       0.844 -0.000 -0.000  0.536 -0.000
     occupation matrix ns (before diag.):
       0.985  0.011 -0.000 -0.004  0.000
       0.011  0.980 -0.000  0.004  0.000
      -0.000 -0.000  0.987 -0.000 -0.011
      -0.004  0.004 -0.000  0.994 -0.000
       0.000  0.000 -0.011 -0.000  0.976
     SPIN  2
     eigenvalues:
       0.027  0.027  0.030  0.093  0.094
     eigenvectors (columns):
       0.839  0.000  0.112 -0.532  0.000
       0.479  0.000  0.311  0.821 -0.000
       0.000 -0.813  0.000  0.000  0.582
      -0.257 -0.000  0.944 -0.207 -0.000
      -0.000  0.582 -0.000  0.000  0.813
     occupation matrix ns (before diag.):
       0.046 -0.029  0.000  0.008  0.000
      -0.029  0.072 -0.000 -0.010  0.000
       0.000 -0.000  0.050 -0.000  0.032
       0.008 -0.010 -0.000  0.033 -0.000
       0.000  0.000  0.032 -0.000  0.071
     ------------------------ ATOM    2 ------------------------
     Tr[ns(  2)] (up, down, total) =   4.96457  1.21201  6.17658
     Atomic magnetic moment for atom   2 =   3.75256
     SPIN  1
     eigenvalues:
       0.987  0.987  0.995  0.997  0.998
     eigenvectors (columns):
       0.673  0.000 -0.709 -0.000 -0.212
      -0.703 -0.000 -0.701  0.000  0.116
      -0.000  0.577 -0.000 -0.816  0.000
       0.231  0.000 -0.070  0.000  0.970
      -0.000  0.816  0.000  0.577 -0.000
     occupation matrix ns (before diag.):
       0.992  0.004 -0.000 -0.002  0.000
       0.004  0.991 -0.000  0.002  0.000
      -0.000 -0.000  0.994 -0.000 -0.005
      -0.002  0.002 -0.000  0.997 -0.000
       0.000  0.000 -0.005 -0.000  0.991
     SPIN  2
     eigenvalues:
       0.024  0.029  0.086  0.094  0.979
     eigenvectors (columns):
      -0.000  0.198  0.307 -0.000 -0.931
      -0.000 -0.189 -0.920  0.000 -0.344
      -0.855 -0.000  0.000  0.519  0.000
       0.000 -0.962  0.244 -0.000 -0.124
       0.519  0.000  0.000  0.855 -0.000
     occupation matrix ns (before diag.):
       0.857  0.288 -0.000  0.114  0.000
       0.288  0.190 -0.000  0.028  0.000
      -0.000 -0.000  0.043 -0.000  0.031
       0.114  0.028 -0.000  0.047 -0.000
       0.000  0.000  0.031 -0.000  0.075

     Number of occupied Hubbard levels =   11.3704

     HUBBARD ENERGY =    0.1412  (Ry)

     total cpu time spent up to now is      112.0 secs

     total energy              =   -1035.27798078 Ry
     estimated scf accuracy    <       0.00297501 Ry

     total magnetization       =     9.00 Bohr mag/cell
     absolute magnetization    =     9.02 Bohr mag/cell

     iteration # 11     ecut=   120.00 Ry     beta= 0.70
     Davidson diagonalization with overlap

---- Real-time Memory Report at c_bands before calling an iterative solver
           218 MiB given to the printing process from OS
           175 MiB allocation reported by mallinfo(arena+hblkhd)
        663814 MiB available memory on the node where the printing process lives
------------------
     ethr =  1.16E-06,  avg # of iterations =  1.7

     =================== HUBBARD OCCUPATIONS ===================
     ------------------------ ATOM    1 ------------------------
     Tr[ns(  1)] (up, down, total) =   4.92217  0.27188  5.19405
     Atomic magnetic moment for atom   1 =   4.65028
     SPIN  1
     eigenvalues:
       0.969  0.970  0.994  0.994  0.995
     eigenvectors (columns):
      -0.000 -0.595  0.747  0.000 -0.296
       0.000  0.771  0.635  0.000  0.052
       0.536 -0.000  0.000 -0.844  0.000
       0.000 -0.227  0.197  0.000  0.954
       0.844 -0.000 -0.000  0.536 -0.000
     occupation matrix ns (before diag.):
       0.985  0.011 -0.000 -0.004  0.000
       0.011  0.980 -0.000  0.004  0.000
      -0.000 -0.000  0.987 -0.000 -0.011
      -0.004  0.004 -0.000  0.994 -0.000
       0.000  0.000 -0.011 -0.000  0.976
     SPIN  2
     eigenvalues:
       0.027  0.027  0.030  0.094  0.094
     eigenvectors (columns):
       0.839  0.000  0.112 -0.532  0.000
       0.479  0.000  0.311  0.821 -0.000
       0.000 -0.813  0.000  0.000  0.582
      -0.257 -0.000  0.944 -0.207 -0.000
      -0.000  0.582 -0.000  0.000  0.813
     occupation matrix ns (before diag.):
       0.046 -0.029  0.000  0.008  0.000
      -0.029  0.072 -0.000 -0.010  0.000
       0.000 -0.000  0.050 -0.000  0.032
       0.008 -0.010 -0.000  0.033 -0.000
       0.000  0.000  0.032 -0.000  0.071
     ------------------------ ATOM    2 ------------------------
     Tr[ns(  2)] (up, down, total) =   4.96411  1.20983  6.17394
     Atomic magnetic moment for atom   2 =   3.75427
     SPIN  1
     eigenvalues:
       0.987  0.987  0.995  0.997  0.998
     eigenvectors (columns):
      -0.678  0.000 -0.704 -0.000 -0.209
       0.698 -0.000 -0.707  0.000  0.118
       0.000  0.578 -0.000 -0.816  0.000
      -0.231  0.000 -0.066  0.000  0.971
       0.000  0.816  0.000  0.578 -0.000
     occupation matrix ns (before diag.):
       0.991  0.004 -0.000 -0.002  0.000
       0.004  0.991 -0.000  0.002  0.000
      -0.000 -0.000  0.994 -0.000 -0.005
      -0.002  0.002 -0.000  0.997 -0.000
       0.000  0.000 -0.005 -0.000  0.991
     SPIN  2
     eigenvalues:
       0.024  0.028  0.085  0.094  0.979
     eigenvectors (columns):
      -0.000  0.195  0.296 -0.000 -0.935
      -0.000 -0.190 -0.924  0.000 -0.332
      -0.855 -0.000  0.000  0.519  0.000
       0.000 -0.962  0.242 -0.000 -0.124
       0.519 -0.000  0.000  0.855 -0.000
     occupation matrix ns (before diag.):
       0.864  0.280 -0.000  0.115  0.000
       0.280  0.182 -0.000  0.027  0.000
      -0.000 -0.000  0.043 -0.000  0.031
       0.115  0.027 -0.000  0.047 -0.000
       0.000  0.000  0.031 -0.000  0.075

     Number of occupied Hubbard levels =   11.3680

     HUBBARD ENERGY =    0.1418  (Ry)

     total cpu time spent up to now is      120.2 secs

     total energy              =   -1035.27750193 Ry
     estimated scf accuracy    <       0.00223247 Ry

     total magnetization       =     9.00 Bohr mag/cell
     absolute magnetization    =     9.02 Bohr mag/cell

     iteration # 12     ecut=   120.00 Ry     beta= 0.70
     Davidson diagonalization with overlap

---- Real-time Memory Report at c_bands before calling an iterative solver
           218 MiB given to the printing process from OS
           175 MiB allocation reported by mallinfo(arena+hblkhd)
        663814 MiB available memory on the node where the printing process lives
------------------
     ethr =  1.16E-06,  avg # of iterations =  2.4

     =================== HUBBARD OCCUPATIONS ===================
     ------------------------ ATOM    1 ------------------------
     Tr[ns(  1)] (up, down, total) =   4.92225  0.27193  5.19418
     Atomic magnetic moment for atom   1 =   4.65032
     SPIN  1
     eigenvalues:
       0.969  0.970  0.994  0.994  0.995
     eigenvectors (columns):
      -0.000 -0.595  0.747  0.000 -0.297
       0.000  0.771  0.635  0.000  0.052
       0.536 -0.000  0.000 -0.844  0.000
       0.000 -0.227  0.198  0.000  0.954
       0.844 -0.000 -0.000  0.536 -0.000
     occupation matrix ns (before diag.):
       0.985  0.011 -0.000 -0.004  0.000
       0.011  0.980 -0.000  0.004  0.000
      -0.000 -0.000  0.987 -0.000 -0.011
      -0.004  0.004 -0.000  0.994 -0.000
       0.000  0.000 -0.011 -0.000  0.977
     SPIN  2
     eigenvalues:
       0.027  0.027  0.030  0.094  0.094
     eigenvectors (columns):
       0.839  0.000  0.113 -0.532  0.000
       0.479  0.000  0.311  0.821 -0.000
       0.000 -0.813  0.000  0.000  0.582
      -0.258 -0.000  0.944 -0.207 -0.000
      -0.000  0.582 -0.000  0.000  0.813
     occupation matrix ns (before diag.):
       0.046 -0.029  0.000  0.008  0.000
      -0.029  0.072 -0.000 -0.010  0.000
       0.000 -0.000  0.050 -0.000  0.032
       0.008 -0.010 -0.000  0.033 -0.000
       0.000  0.000  0.032 -0.000  0.072
     ------------------------ ATOM    2 ------------------------
     Tr[ns(  2)] (up, down, total) =   4.96417  1.20951  6.17368
     Atomic magnetic moment for atom   2 =   3.75466
     SPIN  1
     eigenvalues:
       0.987  0.987  0.995  0.997  0.998
     eigenvectors (columns):
       0.680  0.000 -0.703 -0.000 -0.209
      -0.695 -0.000 -0.709  0.000  0.119
      -0.000  0.578 -0.000 -0.816  0.000
       0.232  0.000 -0.064  0.000  0.971
      -0.000  0.816  0.000  0.578 -0.000
     occupation matrix ns (before diag.):
       0.991  0.004 -0.000 -0.002  0.000
       0.004  0.991 -0.000  0.002  0.000
      -0.000 -0.000  0.994 -0.000 -0.005
      -0.002  0.002 -0.000  0.997 -0.000
       0.000  0.000 -0.005 -0.000  0.991
     SPIN  2
     eigenvalues:
       0.024  0.029  0.085  0.094  0.979
     eigenvectors (columns):
      -0.000  0.192  0.283 -0.000 -0.940
      -0.000 -0.190 -0.929  0.000 -0.319
      -0.855 -0.000  0.000  0.518  0.000
       0.000 -0.963  0.240 -0.000 -0.125
       0.518  0.000  0.000  0.855 -0.000
     occupation matrix ns (before diag.):
       0.872  0.270 -0.000  0.115  0.000
       0.270  0.173 -0.000  0.025  0.000
      -0.000 -0.000  0.043 -0.000  0.031
       0.115  0.025 -0.000  0.047 -0.000
       0.000  0.000  0.031 -0.000  0.075

     Number of occupied Hubbard levels =   11.3679

     HUBBARD ENERGY =    0.1423  (Ry)

     total cpu time spent up to now is      128.7 secs

     total energy              =   -1035.27784535 Ry
     estimated scf accuracy    <       0.00241302 Ry

     total magnetization       =     9.00 Bohr mag/cell
     absolute magnetization    =     9.02 Bohr mag/cell

     iteration # 13     ecut=   120.00 Ry     beta= 0.70
     Davidson diagonalization with overlap

---- Real-time Memory Report at c_bands before calling an iterative solver
           218 MiB given to the printing process from OS
           175 MiB allocation reported by mallinfo(arena+hblkhd)
        663809 MiB available memory on the node where the printing process lives
------------------
     ethr =  1.16E-06,  avg # of iterations =  1.1

     =================== HUBBARD OCCUPATIONS ===================
     ------------------------ ATOM    1 ------------------------
     Tr[ns(  1)] (up, down, total) =   4.92226  0.27193  5.19419
     Atomic magnetic moment for atom   1 =   4.65033
     SPIN  1
     eigenvalues:
       0.969  0.970  0.994  0.994  0.995
     eigenvectors (columns):
      -0.000 -0.595  0.747  0.000 -0.297
       0.000  0.771  0.635  0.000  0.052
       0.536 -0.000  0.000 -0.844  0.000
       0.000 -0.227  0.198  0.000  0.954
       0.844 -0.000 -0.000  0.536 -0.000
     occupation matrix ns (before diag.):
       0.985  0.011 -0.000 -0.004  0.000
       0.011  0.980 -0.000  0.004  0.000
      -0.000 -0.000  0.987 -0.000 -0.011
      -0.004  0.004 -0.000  0.994 -0.000
       0.000  0.000 -0.011 -0.000  0.977
     SPIN  2
     eigenvalues:
       0.027  0.027  0.030  0.094  0.094
     eigenvectors (columns):
       0.839  0.000  0.112 -0.532  0.000
       0.479  0.000  0.311  0.821 -0.000
       0.000 -0.813  0.000  0.000  0.582
      -0.258 -0.000  0.944 -0.207 -0.000
      -0.000  0.582 -0.000  0.000  0.813
     occupation matrix ns (before diag.):
       0.046 -0.029  0.000  0.008  0.000
      -0.029  0.072 -0.000 -0.010  0.000
       0.000 -0.000  0.050 -0.000  0.032
       0.008 -0.010 -0.000  0.033 -0.000
       0.000  0.000  0.032 -0.000  0.072
     ------------------------ ATOM    2 ------------------------
     Tr[ns(  2)] (up, down, total) =   4.96420  1.21002  6.17422
     Atomic magnetic moment for atom   2 =   3.75418
     SPIN  1
     eigenvalues:
       0.987  0.987  0.995  0.997  0.998
     eigenvectors (columns):
       0.678  0.000  0.704 -0.000 -0.209
      -0.697 -0.000  0.707  0.000  0.119
      -0.000  0.578  0.000 -0.816  0.000
       0.231  0.000  0.065  0.000  0.971
      -0.000  0.816 -0.000  0.578 -0.000
     occupation matrix ns (before diag.):
       0.991  0.004 -0.000 -0.002  0.000
       0.004  0.991 -0.000  0.002  0.000
      -0.000 -0.000  0.994 -0.000 -0.005
      -0.002  0.002 -0.000  0.997 -0.000
       0.000  0.000 -0.005 -0.000  0.991
     SPIN  2
     eigenvalues:
       0.024  0.029  0.085  0.094  0.979
     eigenvectors (columns):
      -0.000  0.195  0.292 -0.000 -0.936
      -0.000 -0.190 -0.925  0.000 -0.328
      -0.855 -0.000  0.000  0.518  0.000
       0.000 -0.962  0.242 -0.000 -0.125
       0.518  0.000  0.000  0.855 -0.000
     occupation matrix ns (before diag.):
       0.866  0.277 -0.000  0.115  0.000
       0.277  0.179 -0.000  0.026  0.000
      -0.000 -0.000  0.043 -0.000  0.031
       0.115  0.026 -0.000  0.047 -0.000
       0.000  0.000  0.031 -0.000  0.075

     Number of occupied Hubbard levels =   11.3684

     HUBBARD ENERGY =    0.1403  (Ry)

     total cpu time spent up to now is      136.6 secs

     total energy              =   -1035.27628561 Ry
     estimated scf accuracy    <       0.00241733 Ry

     total magnetization       =     9.00 Bohr mag/cell
     absolute magnetization    =     9.02 Bohr mag/cell

     iteration # 14     ecut=   120.00 Ry     beta= 0.70
     Davidson diagonalization with overlap

---- Real-time Memory Report at c_bands before calling an iterative solver
           218 MiB given to the printing process from OS
           175 MiB allocation reported by mallinfo(arena+hblkhd)
        663809 MiB available memory on the node where the printing process lives
------------------
     ethr =  1.16E-06,  avg # of iterations =  3.0

     =================== HUBBARD OCCUPATIONS ===================
     ------------------------ ATOM    1 ------------------------
     Tr[ns(  1)] (up, down, total) =   4.92222  0.27193  5.19415
     Atomic magnetic moment for atom   1 =   4.65029
     SPIN  1
     eigenvalues:
       0.969  0.970  0.994  0.994  0.995
     eigenvectors (columns):
      -0.000 -0.595  0.747  0.000 -0.297
       0.000  0.771  0.635  0.000  0.052
       0.536 -0.000  0.000 -0.844  0.000
       0.000 -0.227  0.198  0.000  0.954
       0.844 -0.000 -0.000  0.536 -0.000
     occupation matrix ns (before diag.):
       0.985  0.011 -0.000 -0.004  0.000
       0.011  0.980 -0.000  0.004  0.000
      -0.000 -0.000  0.987 -0.000 -0.011
      -0.004  0.004 -0.000  0.994 -0.000
       0.000  0.000 -0.011 -0.000  0.977
     SPIN  2
     eigenvalues:
       0.027  0.027  0.030  0.094  0.094
     eigenvectors (columns):
       0.839  0.000  0.114 -0.532  0.000
       0.479  0.000  0.312  0.821 -0.000
       0.000 -0.813  0.000  0.000  0.582
      -0.260 -0.000  0.943 -0.207 -0.000
      -0.000  0.582 -0.000  0.000  0.813
     occupation matrix ns (before diag.):
       0.046 -0.029  0.000  0.008  0.000
      -0.029  0.072 -0.000 -0.010  0.000
       0.000 -0.000  0.050 -0.000  0.032
       0.008 -0.010 -0.000  0.033 -0.000
       0.000  0.000  0.032 -0.000  0.072
     ------------------------ ATOM    2 ------------------------
     Tr[ns(  2)] (up, down, total) =   4.96409  1.20818  6.17227
     Atomic magnetic moment for atom   2 =   3.75591
     SPIN  1
     eigenvalues:
       0.986  0.987  0.995  0.997  0.998
     eigenvectors (columns):
      -0.685  0.000 -0.699 -0.000 -0.206
       0.690 -0.000 -0.713  0.000  0.122
       0.000  0.579 -0.000 -0.816  0.000
      -0.233  0.000 -0.059  0.000  0.971
       0.000  0.816  0.000  0.579 -0.000
     occupation matrix ns (before diag.):
       0.991  0.004 -0.000 -0.002  0.000
       0.004  0.991 -0.000  0.002  0.000
      -0.000 -0.000  0.994 -0.000 -0.005
      -0.002  0.002 -0.000  0.997 -0.000
       0.000  0.000 -0.005 -0.000  0.991
     SPIN  2
     eigenvalues:
       0.024  0.029  0.083  0.094  0.978
     eigenvectors (columns):
      -0.000  0.187  0.261 -0.000 -0.947
      -0.000 -0.192 -0.936  0.000 -0.295
      -0.855 -0.000  0.000  0.518  0.000
       0.000 -0.963  0.237 -0.000 -0.124
       0.518 -0.000  0.000  0.855 -0.000
     occupation matrix ns (before diag.):
       0.884  0.252 -0.000  0.115  0.000
       0.252  0.160 -0.000  0.023  0.000
      -0.000 -0.000  0.043 -0.000  0.031
       0.115  0.023 -0.000  0.046 -0.000
       0.000  0.000  0.031 -0.000  0.075

     Number of occupied Hubbard levels =   11.3664

     HUBBARD ENERGY =    0.0749  (Ry)

     total cpu time spent up to now is      145.4 secs

     total energy              =   -1035.21385404 Ry
     estimated scf accuracy    <       0.00235796 Ry

     total magnetization       =     9.00 Bohr mag/cell
     absolute magnetization    =     9.02 Bohr mag/cell

     iteration # 15     ecut=   120.00 Ry     beta= 0.70
     Davidson diagonalization with overlap

---- Real-time Memory Report at c_bands before calling an iterative solver
           218 MiB given to the printing process from OS
           175 MiB allocation reported by mallinfo(arena+hblkhd)
        667935 MiB available memory on the node where the printing process lives
------------------
     c_bands:  1 eigenvalues not converged
     c_bands:  1 eigenvalues not converged
     c_bands:  1 eigenvalues not converged
     c_bands:  1 eigenvalues not converged
     c_bands:  1 eigenvalues not converged
     c_bands:  1 eigenvalues not converged
     c_bands:  1 eigenvalues not converged
     c_bands:  1 eigenvalues not converged
     c_bands:  1 eigenvalues not converged
     c_bands:  1 eigenvalues not converged
     c_bands:  1 eigenvalues not converged
     c_bands:  3 eigenvalues not converged
     c_bands:  2 eigenvalues not converged
     c_bands:  1 eigenvalues not converged
     c_bands:  2 eigenvalues not converged
     c_bands:  1 eigenvalues not converged
     c_bands:  1 eigenvalues not converged
     c_bands:  3 eigenvalues not converged
     c_bands:  1 eigenvalues not converged
     c_bands:  1 eigenvalues not converged
     c_bands:  2 eigenvalues not converged
     ethr =  1.16E-06,  avg # of iterations = 10.1

     =================== HUBBARD OCCUPATIONS ===================
     ------------------------ ATOM    1 ------------------------
     Tr[ns(  1)] (up, down, total) =   4.92194  0.27191  5.19385
     Atomic magnetic moment for atom   1 =   4.65003
     SPIN  1
     eigenvalues:
       0.969  0.970  0.994  0.994  0.995
     eigenvectors (columns):
      -0.000 -0.594  0.752  0.000 -0.287
       0.000  0.772  0.633  0.000  0.060
       0.535 -0.000  0.000 -0.845  0.000
       0.000 -0.227  0.186  0.000  0.956
       0.845 -0.000 -0.000  0.535 -0.000
     occupation matrix ns (before diag.):
       0.985  0.011 -0.000 -0.004  0.000
       0.011  0.979 -0.000  0.004  0.000
      -0.000 -0.000  0.987 -0.000 -0.011
      -0.004  0.004 -0.000  0.994 -0.000
       0.000  0.000 -0.011 -0.000  0.976
     SPIN  2
     eigenvalues:
       0.027  0.027  0.030  0.094  0.094
     eigenvectors (columns):
       0.842  0.000  0.097 -0.531  0.000
       0.484  0.000  0.302  0.821 -0.000
       0.000 -0.813  0.000  0.000  0.582
      -0.240 -0.000  0.948 -0.207 -0.000
      -0.000  0.582 -0.000  0.000  0.813
     occupation matrix ns (before diag.):
       0.046 -0.029  0.000  0.008  0.000
      -0.029  0.072 -0.000 -0.010  0.000
       0.000 -0.000  0.050 -0.000  0.032
       0.008 -0.010 -0.000  0.033 -0.000
       0.000  0.000  0.032 -0.000  0.071
     ------------------------ ATOM    2 ------------------------
     Tr[ns(  2)] (up, down, total) =   4.96184  1.19959  6.16143
     Atomic magnetic moment for atom   2 =   3.76225
     SPIN  1
     eigenvalues:
       0.986  0.987  0.994  0.997  0.998
     eigenvectors (columns):
      -0.000  0.607 -0.762 -0.000 -0.225
       0.000 -0.766 -0.636  0.000  0.086
       0.579  0.000 -0.000 -0.815  0.000
       0.000  0.209 -0.120  0.000  0.971
       0.815  0.000  0.000  0.579 -0.000
     occupation matrix ns (before diag.):
       0.992  0.003 -0.000 -0.002  0.000
       0.003  0.990 -0.000  0.001  0.000
      -0.000 -0.000  0.994 -0.000 -0.005
      -0.002  0.001 -0.000  0.997 -0.000
       0.000  0.000 -0.005 -0.000  0.990
     SPIN  2
     eigenvalues:
       0.024  0.026  0.077  0.087  0.986
     eigenvectors (columns):
      -0.000  0.278  0.523 -0.000 -0.806
       0.000 -0.206 -0.787  0.000 -0.581
      -0.851 -0.000  0.000  0.525  0.000
       0.000 -0.938  0.328 -0.000 -0.111
       0.525  0.000  0.000  0.851 -0.000
     occupation matrix ns (before diag.):
       0.663  0.429 -0.000  0.094  0.000
       0.429  0.382 -0.000  0.049  0.000
      -0.000 -0.000  0.041 -0.000  0.028
       0.094  0.049 -0.000  0.044 -0.000
       0.000  0.000  0.028 -0.000  0.069

     Number of occupied Hubbard levels =   11.3553

     HUBBARD ENERGY =    0.0839  (Ry)

     total cpu time spent up to now is      162.7 secs

     total energy              =   -1035.27863926 Ry
     estimated scf accuracy    <       0.00567856 Ry

     total magnetization       =     9.00 Bohr mag/cell
     absolute magnetization    =     9.03 Bohr mag/cell

     iteration # 16     ecut=   120.00 Ry     beta= 0.70
     Davidson diagonalization with overlap

---- Real-time Memory Report at c_bands before calling an iterative solver
           218 MiB given to the printing process from OS
           175 MiB allocation reported by mallinfo(arena+hblkhd)
        667935 MiB available memory on the node where the printing process lives
------------------
     c_bands:  1 eigenvalues not converged
     c_bands:  1 eigenvalues not converged
     ethr =  1.16E-06,  avg # of iterations =  5.1

     =================== HUBBARD OCCUPATIONS ===================
     ------------------------ ATOM    1 ------------------------
     Tr[ns(  1)] (up, down, total) =   4.92204  0.27211  5.19415
     Atomic magnetic moment for atom   1 =   4.64993
     SPIN  1
     eigenvalues:
       0.969  0.970  0.994  0.994  0.995
     eigenvectors (columns):
      -0.000 -0.594  0.752  0.000 -0.286
       0.000  0.772  0.633  0.000  0.061
       0.535 -0.000  0.000 -0.845  0.000
       0.000 -0.227  0.185  0.000  0.956
       0.845 -0.000 -0.000  0.535 -0.000
     occupation matrix ns (before diag.):
       0.985  0.011 -0.000 -0.004  0.000
       0.011  0.979 -0.000  0.004  0.000
      -0.000 -0.000  0.987 -0.000 -0.011
      -0.004  0.004 -0.000  0.994 -0.000
       0.000  0.000 -0.011 -0.000  0.976
     SPIN  2
     eigenvalues:
       0.027  0.027  0.030  0.094  0.094
     eigenvectors (columns):
       0.841  0.000  0.098 -0.531  0.000
       0.483  0.000  0.303  0.821 -0.000
       0.000 -0.813  0.000  0.000  0.582
      -0.241 -0.000  0.948 -0.207 -0.000
      -0.000  0.582 -0.000  0.000  0.813
     occupation matrix ns (before diag.):
       0.046 -0.029  0.000  0.008  0.000
      -0.029  0.072 -0.000 -0.010  0.000
       0.000 -0.000  0.050 -0.000  0.032
       0.008 -0.010 -0.000  0.033 -0.000
       0.000  0.000  0.032 -0.000  0.071
     ------------------------ ATOM    2 ------------------------
     Tr[ns(  2)] (up, down, total) =   4.96189  1.20087  6.16277
     Atomic magnetic moment for atom   2 =   3.76102
     SPIN  1
     eigenvalues:
       0.986  0.987  0.994  0.997  0.998
     eigenvectors (columns):
      -0.000  0.614 -0.757 -0.000 -0.224
       0.000 -0.761 -0.643  0.000  0.088
       0.579  0.000 -0.000 -0.815  0.000
       0.000  0.210 -0.117  0.000  0.971
       0.815  0.000  0.000  0.579 -0.000
     occupation matrix ns (before diag.):
       0.991  0.003 -0.000 -0.002  0.000
       0.003  0.990 -0.000  0.001  0.000
      -0.000 -0.000  0.994 -0.000 -0.005
      -0.002  0.001 -0.000  0.997 -0.000
       0.000  0.000 -0.005 -0.000  0.990
     SPIN  2
     eigenvalues:
       0.024  0.027  0.078  0.087  0.985
     eigenvectors (columns):
      -0.000  0.271 -0.513 -0.000 -0.814
       0.000 -0.203  0.796  0.000 -0.570
      -0.851 -0.000 -0.000  0.526  0.000
       0.000 -0.941 -0.320 -0.000 -0.111
       0.526  0.000 -0.000  0.851 -0.000
     occupation matrix ns (before diag.):
       0.676  0.423 -0.000  0.095  0.000
       0.423  0.370 -0.000  0.048  0.000
      -0.000 -0.000  0.041 -0.000  0.028
       0.095  0.048 -0.000  0.044 -0.000
       0.000  0.000  0.028 -0.000  0.070

     Number of occupied Hubbard levels =   11.3569

     HUBBARD ENERGY =    0.0547  (Ry)

     total cpu time spent up to now is      172.5 secs

     total energy              =   -1035.26904375 Ry
     estimated scf accuracy    <       0.00399627 Ry

     total magnetization       =     9.00 Bohr mag/cell
     absolute magnetization    =     9.03 Bohr mag/cell

     iteration # 17     ecut=   120.00 Ry     beta= 0.70
     Davidson diagonalization with overlap

---- Real-time Memory Report at c_bands before calling an iterative solver
           218 MiB given to the printing process from OS
           175 MiB allocation reported by mallinfo(arena+hblkhd)
        667935 MiB available memory on the node where the printing process lives
------------------
     c_bands:  1 eigenvalues not converged
     c_bands:  2 eigenvalues not converged
     c_bands:  1 eigenvalues not converged
     c_bands:  2 eigenvalues not converged
     c_bands:  1 eigenvalues not converged
     c_bands:  1 eigenvalues not converged
     c_bands:  1 eigenvalues not converged
     c_bands:  1 eigenvalues not converged
     c_bands:  1 eigenvalues not converged
     c_bands:  1 eigenvalues not converged
     c_bands:  1 eigenvalues not converged
     c_bands:  1 eigenvalues not converged
     c_bands:  1 eigenvalues not converged
     c_bands:  1 eigenvalues not converged
     c_bands:  2 eigenvalues not converged
     c_bands:  1 eigenvalues not converged
     c_bands:  1 eigenvalues not converged
     c_bands:  1 eigenvalues not converged
     c_bands:  1 eigenvalues not converged
[...]
     1.0000   1.0000   1.0000   1.0000   1.0000   1.0000   1.0000   1.0000
     1.0000   1.0000   1.0000   1.0000   1.0000   1.0000   1.0000   1.0000
     1.0000   1.0000   1.0000   1.0000   1.0000   1.0000   1.0000   1.0000
     1.0000   1.0000   1.0000   1.0000   1.0000   1.0000   1.0000   1.0000
     1.0000   0.0000   0.0000   0.0000   0.0000   0.0000   0.0000   0.0000
     0.0000   0.0000   0.0000   0.0000   0.0000   0.0000   0.0000   0.0000
     0.0000

          k = 0.4166 0.2035 0.0816 ( 18961 PWs)   bands (ev):

   -72.6412 -63.7482 -63.7362 -63.7017 -39.1728 -38.6099 -38.5426 -32.5198
   -32.5015 -32.4902 -28.1995 -28.1487 -28.1354 -28.0689 -28.0348 -27.9888
    -7.7238  -7.0247  -6.8872  -6.5636  -6.3918  -6.1923  -6.0995  -5.9511
     4.1835   4.6183   4.7989   5.1843   5.4426   5.6444   5.7690   5.9308
     6.2837   6.3924   7.1114   7.1974   7.4957   7.7508   7.9662   8.1423
     8.5169   8.5904   8.6397   8.8445   9.0304   9.2089   9.5491   9.7102
    10.4376  13.6945  14.0045  14.1026  14.5506  14.6272  15.1407  16.5357
    16.6209  16.9545  17.0769  17.1138  17.3564  17.7242  17.9198  18.2006
    18.4665

     occupation numbers 
     1.0000   1.0000   1.0000   1.0000   1.0000   1.0000   1.0000   1.0000
     1.0000   1.0000   1.0000   1.0000   1.0000   1.0000   1.0000   1.0000
     1.0000   1.0000   1.0000   1.0000   1.0000   1.0000   1.0000   1.0000
     1.0000   1.0000   1.0000   1.0000   1.0000   1.0000   1.0000   1.0000
     1.0000   1.0000   1.0000   1.0000   1.0000   1.0000   1.0000   1.0000
     1.0000   1.0000   1.0000   1.0000   1.0000   1.0000   1.0000   1.0000
     1.0000   0.0000   0.0000   0.0000   0.0000   0.0000   0.0000   0.0000
     0.0000   0.0000   0.0000   0.0000   0.0000   0.0000   0.0000   0.0000
     0.0000

          k = 0.4166 0.2035 0.2358 ( 18964 PWs)   bands (ev):

   -72.6412 -63.7472 -63.7370 -63.7016 -39.1728 -38.6099 -38.5426 -32.5198
   -32.5015 -32.4903 -28.1989 -28.1611 -28.1272 -28.0822 -28.0216 -27.9859
    -7.5716  -7.0755  -6.8507  -6.6616  -6.4525  -6.2026  -6.0708  -5.9540
     4.2075   4.7321   4.7697   5.1018   5.1807   5.5133   5.7483   5.9941
     6.3201   6.6193   6.9730   7.4182   7.6109   7.8284   7.9768   8.2056
     8.4197   8.5109   8.7979   8.8546   8.9739   9.1875   9.4162   9.6394
    10.4617  13.6759  14.0108  14.2657  14.4564  14.6247  15.0514  16.4435
    16.5719  16.8986  17.0049  17.1167  17.4366  17.7183  17.9130  18.1428
    18.3778

     occupation numbers 
     1.0000   1.0000   1.0000   1.0000   1.0000   1.0000   1.0000   1.0000
     1.0000   1.0000   1.0000   1.0000   1.0000   1.0000   1.0000   1.0000
     1.0000   1.0000   1.0000   1.0000   1.0000   1.0000   1.0000   1.0000
     1.0000   1.0000   1.0000   1.0000   1.0000   1.0000   1.0000   1.0000
     1.0000   1.0000   1.0000   1.0000   1.0000   1.0000   1.0000   1.0000
     1.0000   1.0000   1.0000   1.0000   1.0000   1.0000   1.0000   1.0000
     1.0000   0.0000   0.0000   0.0000   0.0000   0.0000   0.0000   0.0000
     0.0000   0.0000   0.0000   0.0000   0.0000   0.0000   0.0000   0.0000
     0.0000

          k = 0.4166 0.2035 0.3901 ( 18982 PWs)   bands (ev):

   -72.6411 -63.7460 -63.7378 -63.7015 -39.1728 -38.6099 -38.5427 -32.5200
   -32.5014 -32.4904 -28.1953 -28.1745 -28.1165 -28.0964 -28.0108 -27.9840
    -7.3167  -7.1124  -6.8919  -6.7812  -6.4891  -6.3209  -5.9906  -5.9482
     4.3072   4.6086   4.6926   4.8505   5.2046   5.6991   5.9131   5.9902
     6.5462   6.7603   6.9216   7.2067   7.5201   7.6889   8.0488   8.2660
     8.3911   8.4980   8.7840   8.9288   9.0785   9.2158   9.3237   9.5472
    10.5274  13.7522  13.9041  14.3370  14.4957  14.5708  14.8483  16.4038
    16.4809  16.8455  16.9906  17.1020  17.4615  17.7477  17.8672  18.0510
    18.3751

     occupation numbers 
     1.0000   1.0000   1.0000   1.0000   1.0000   1.0000   1.0000   1.0000
     1.0000   1.0000   1.0000   1.0000   1.0000   1.0000   1.0000   1.0000
     1.0000   1.0000   1.0000   1.0000   1.0000   1.0000   1.0000   1.0000
     1.0000   1.0000   1.0000   1.0000   1.0000   1.0000   1.0000   1.0000
     1.0000   1.0000   1.0000   1.0000   1.0000   1.0000   1.0000   1.0000
     1.0000   1.0000   1.0000   1.0000   1.0000   1.0000   1.0000   1.0000
     1.0000   0.0000   0.0000   0.0000   0.0000   0.0000   0.0000   0.0000
     0.0000   0.0000   0.0000   0.0000   0.0000   0.0000   0.0000   0.0000
     0.0000

          k = 0.4167 0.2035-0.3812 ( 18972 PWs)   bands (ev):

   -72.6411 -63.7460 -63.7378 -63.7015 -39.1728 -38.6099 -38.5427 -32.5200
   -32.5014 -32.4904 -28.1953 -28.1745 -28.1164 -28.0966 -28.0107 -27.9840
    -7.3195  -7.0857  -6.8885  -6.7633  -6.4559  -6.4208  -6.0132  -5.9111
     4.3126   4.5819   4.6469   4.8843   5.4157   5.6033   5.9015   6.0107
     6.5467   6.8658   6.9868   7.0596   7.3830   7.7575   7.9943   8.1464
     8.4688   8.5936   8.7223   8.8497   9.1595   9.1934   9.3292   9.5748
    10.5449  13.7186  13.9297  14.2742  14.4978  14.5842  14.7801  16.4219
    16.4810  16.8885  16.9643  17.1259  17.4230  17.7357  17.9363  18.0412
    18.3350

     occupation numbers 
     1.0000   1.0000   1.0000   1.0000   1.0000   1.0000   1.0000   1.0000
     1.0000   1.0000   1.0000   1.0000   1.0000   1.0000   1.0000   1.0000
     1.0000   1.0000   1.0000   1.0000   1.0000   1.0000   1.0000   1.0000
     1.0000   1.0000   1.0000   1.0000   1.0000   1.0000   1.0000   1.0000
     1.0000   1.0000   1.0000   1.0000   1.0000   1.0000   1.0000   1.0000
     1.0000   1.0000   1.0000   1.0000   1.0000   1.0000   1.0000   1.0000
     1.0000   0.0000   0.0000   0.0000   0.0000   0.0000   0.0000   0.0000
     0.0000   0.0000   0.0000   0.0000   0.0000   0.0000   0.0000   0.0000
     0.0000

          k = 0.4167 0.2035-0.2269 ( 18964 PWs)   bands (ev):

   -72.6412 -63.7472 -63.7369 -63.7016 -39.1728 -38.6099 -38.5426 -32.5199
   -32.5015 -32.4902 -28.1989 -28.1611 -28.1271 -28.0825 -28.0214 -27.9860
    -7.5709  -7.0428  -6.7444  -6.6762  -6.5556  -6.2857  -6.0599  -5.9180
     4.1972   4.6258   4.8148   5.1602   5.3165   5.6102   5.7708   5.9685
     6.4812   6.6347   6.7851   7.3440   7.5063   7.8009   7.9959   8.1421
     8.3609   8.5155   8.6793   8.8794   9.1317   9.1567   9.4337   9.6920
    10.4868  13.6605  14.0564  14.1423  14.3447  14.6652  14.9694  16.4525
    16.5948  16.9176  17.0276  17.1561  17.3477  17.7445  17.9217  18.1413
    18.3436

     occupation numbers 
     1.0000   1.0000   1.0000   1.0000   1.0000   1.0000   1.0000   1.0000
     1.0000   1.0000   1.0000   1.0000   1.0000   1.0000   1.0000   1.0000
     1.0000   1.0000   1.0000   1.0000   1.0000   1.0000   1.0000   1.0000
     1.0000   1.0000   1.0000   1.0000   1.0000   1.0000   1.0000   1.0000
     1.0000   1.0000   1.0000   1.0000   1.0000   1.0000   1.0000   1.0000
     1.0000   1.0000   1.0000   1.0000   1.0000   1.0000   1.0000   1.0000
     1.0000   0.0000   0.0000   0.0000   0.0000   0.0000   0.0000   0.0000
     0.0000   0.0000   0.0000   0.0000   0.0000   0.0000   0.0000   0.0000
     0.0000

          k = 0.4167 0.2035-0.0727 ( 18978 PWs)   bands (ev):

   -72.6412 -63.7482 -63.7362 -63.7017 -39.1728 -38.6099 -38.5426 -32.5198
   -32.5015 -32.4902 -28.1996 -28.1487 -28.1354 -28.0691 -28.0347 -27.9888
    -7.7233  -7.0185  -6.8271  -6.5712  -6.4753  -6.1950  -6.0873  -5.9434
     4.1712   4.5946   4.8205   5.2317   5.5168   5.5898   5.7241   6.0953
     6.2608   6.5686   6.7728   7.2448   7.5205   7.6933   7.9224   8.1787
     8.4507   8.5070   8.7297   8.8344   9.0800   9.1847   9.6013   9.7139
    10.4464  13.7114  13.9818  14.0794  14.4216  14.6976  15.1057  16.5268
    16.6277  16.9614  17.1059  17.1520  17.2884  17.8013  17.8298  18.2034
    18.4461

     occupation numbers 
     1.0000   1.0000   1.0000   1.0000   1.0000   1.0000   1.0000   1.0000
     1.0000   1.0000   1.0000   1.0000   1.0000   1.0000   1.0000   1.0000
     1.0000   1.0000   1.0000   1.0000   1.0000   1.0000   1.0000   1.0000
     1.0000   1.0000   1.0000   1.0000   1.0000   1.0000   1.0000   1.0000
     1.0000   1.0000   1.0000   1.0000   1.0000   1.0000   1.0000   1.0000
     1.0000   1.0000   1.0000   1.0000   1.0000   1.0000   1.0000   1.0000
     1.0000   0.0000   0.0000   0.0000   0.0000   0.0000   0.0000   0.0000
     0.0000   0.0000   0.0000   0.0000   0.0000   0.0000   0.0000   0.0000
     0.0000

          k = 0.4166 0.3392 0.0816 ( 18948 PWs)   bands (ev):

   -72.6412 -63.7480 -63.7362 -63.7017 -39.1728 -38.6099 -38.5426 -32.5198
   -32.5015 -32.4902 -28.1992 -28.1476 -28.1347 -28.0695 -28.0364 -27.9892
    -7.6429  -7.1138  -6.8893  -6.5616  -6.4338  -6.1592  -6.0691  -5.9756
     4.0047   4.7886   4.8654   5.2794   5.4069   5.5753   5.9261   6.1724
     6.2538   6.6125   6.7992   7.1508   7.4284   7.6651   7.9594   8.0015
     8.3156   8.5581   8.6860   8.8698   9.1172   9.2541   9.5206   9.6179
    10.4165  13.6066  14.1258  14.1666  14.4396  14.6191  15.2189  16.5211
    16.6622  16.9055  17.0380  17.1580  17.3909  17.6229  17.9158  18.2222
    18.4263

     occupation numbers 
     1.0000   1.0000   1.0000   1.0000   1.0000   1.0000   1.0000   1.0000
     1.0000   1.0000   1.0000   1.0000   1.0000   1.0000   1.0000   1.0000
     1.0000   1.0000   1.0000   1.0000   1.0000   1.0000   1.0000   1.0000
     1.0000   1.0000   1.0000   1.0000   1.0000   1.0000   1.0000   1.0000
     1.0000   1.0000   1.0000   1.0000   1.0000   1.0000   1.0000   1.0000
     1.0000   1.0000   1.0000   1.0000   1.0000   1.0000   1.0000   1.0000
     1.0000   0.0000   0.0000   0.0000   0.0000   0.0000   0.0000   0.0000
     0.0000   0.0000   0.0000   0.0000   0.0000   0.0000   0.0000   0.0000
     0.0000

          k = 0.4166 0.3392 0.2358 ( 18956 PWs)   bands (ev):

   -72.6412 -63.7471 -63.7369 -63.7016 -39.1728 -38.6099 -38.5426 -32.5198
   -32.5015 -32.4903 -28.1993 -28.1613 -28.1265 -28.0828 -28.0218 -27.9854
    -7.5183  -7.1615  -6.8489  -6.6524  -6.3556  -6.2444  -6.0869  -5.9804
     4.0500   4.6715   4.8958   5.1960   5.2357   5.5995   5.9385   6.0007
     6.4340   6.6395   6.7785   7.2291   7.7256   7.8513   7.9419   8.1850
     8.3318   8.5508   8.6963   8.8751   8.9391   9.2204   9.3227   9.5217
    10.4115  13.6528  14.1427  14.2778  14.4373  14.4975  15.1008  16.4620
    16.5735  16.8343  16.9082  17.1491  17.5020  17.6442  17.9194  18.1678
    18.3386

     occupation numbers 
     1.0000   1.0000   1.0000   1.0000   1.0000   1.0000   1.0000   1.0000
     1.0000   1.0000   1.0000   1.0000   1.0000   1.0000   1.0000   1.0000
     1.0000   1.0000   1.0000   1.0000   1.0000   1.0000   1.0000   1.0000
     1.0000   1.0000   1.0000   1.0000   1.0000   1.0000   1.0000   1.0000
     1.0000   1.0000   1.0000   1.0000   1.0000   1.0000   1.0000   1.0000
     1.0000   1.0000   1.0000   1.0000   1.0000   1.0000   1.0000   1.0000
     1.0000   0.0000   0.0000   0.0000   0.0000   0.0000   0.0000   0.0000
     0.0000   0.0000   0.0000   0.0000   0.0000   0.0000   0.0000   0.0000
     0.0000

          k = 0.4166 0.3392 0.3901 ( 18971 PWs)   bands (ev):

   -72.6411 -63.7459 -63.7377 -63.7015 -39.1728 -38.6099 -38.5427 -32.5200
   -32.5014 -32.4904 -28.1966 -28.1757 -28.1163 -28.0965 -28.0098 -27.9829
    -7.3154  -7.1862  -6.8473  -6.7785  -6.3784  -6.3044  -6.0419  -6.0047
     4.2162   4.5652   4.7135   4.8715   5.4067   5.6980   5.8374   6.1125
     6.3651   6.7904   7.0933   7.3133   7.5183   7.8914   8.0652   8.2369
     8.3022   8.4949   8.6948   8.8463   9.0319   9.1438   9.1866   9.4591
    10.4419  13.7669  14.0467  14.2424  14.3986  14.5468  14.8795  16.3748
    16.4403  16.7781  16.9095  17.0856  17.5233  17.7720  17.8517  18.0089
    18.4528

     occupation numbers 
     1.0000   1.0000   1.0000   1.0000   1.0000   1.0000   1.0000   1.0000
     1.0000   1.0000   1.0000   1.0000   1.0000   1.0000   1.0000   1.0000
     1.0000   1.0000   1.0000   1.0000   1.0000   1.0000   1.0000   1.0000
     1.0000   1.0000   1.0000   1.0000   1.0000   1.0000   1.0000   1.0000
     1.0000   1.0000   1.0000   1.0000   1.0000   1.0000   1.0000   1.0000
     1.0000   1.0000   1.0000   1.0000   1.0000   1.0000   1.0000   1.0000
     1.0000   0.0000   0.0000   0.0000   0.0000   0.0000   0.0000   0.0000
     0.0000   0.0000   0.0000   0.0000   0.0000   0.0000   0.0000   0.0000
     0.0000

          k = 0.4167 0.3392-0.3812 ( 18959 PWs)   bands (ev):

   -72.6411 -63.7459 -63.7377 -63.7015 -39.1728 -38.6099 -38.5427 -32.5200
   -32.5014 -32.4904 -28.1966 -28.1756 -28.1162 -28.0967 -28.0097 -27.9830
    -7.3088  -7.1374  -6.8780  -6.7836  -6.3825  -6.3542  -6.0722  -5.9463
     4.3640   4.4900   4.6775   4.8830   5.3383   5.7145   5.8559   6.0322
     6.4559   6.8031   7.1642   7.2565   7.6427   7.8141   8.0458   8.1364
     8.4047   8.4695   8.6127   8.8445   8.9969   9.0973   9.2390   9.5275
    10.4592  13.7562  13.9876  14.2478  14.3791  14.6279  14.7301  16.3763
    16.4410  16.8255  16.8998  17.0853  17.4712  17.7717  17.9060  17.9843
    18.5374

     occupation numbers 
     1.0000   1.0000   1.0000   1.0000   1.0000   1.0000   1.0000   1.0000
     1.0000   1.0000   1.0000   1.0000   1.0000   1.0000   1.0000   1.0000
     1.0000   1.0000   1.0000   1.0000   1.0000   1.0000   1.0000   1.0000
     1.0000   1.0000   1.0000   1.0000   1.0000   1.0000   1.0000   1.0000
     1.0000   1.0000   1.0000   1.0000   1.0000   1.0000   1.0000   1.0000
     1.0000   1.0000   1.0000   1.0000   1.0000   1.0000   1.0000   1.0000
     1.0000   0.0000   0.0000   0.0000   0.0000   0.0000   0.0000   0.0000
     0.0000   0.0000   0.0000   0.0000   0.0000   0.0000   0.0000   0.0000
     0.0000

          k = 0.4167 0.3392-0.2269 ( 18957 PWs)   bands (ev):

   -72.6412 -63.7470 -63.7368 -63.7016 -39.1728 -38.6099 -38.5426 -32.5199
   -32.5015 -32.4903 -28.1993 -28.1612 -28.1265 -28.0831 -28.0216 -27.9855
    -7.5012  -7.1163  -6.7849  -6.6897  -6.5182  -6.2718  -6.0442  -5.9342
     4.1480   4.7201   4.8703   5.1904   5.2510   5.3901   5.9840   6.0790
     6.3971   6.5754   6.9711   7.3615   7.5579   7.8650   8.0449   8.1303
     8.3048   8.3997   8.6268   8.7644   9.0814   9.2287   9.3039   9.6236
    10.4231  13.6074  14.1519  14.2201  14.3403  14.5547  14.9479  16.4250
    16.6041  16.8429  16.9720  17.1484  17.3670  17.7490  17.8570  18.1348
    18.5285

     occupation numbers 
     1.0000   1.0000   1.0000   1.0000   1.0000   1.0000   1.0000   1.0000
     1.0000   1.0000   1.0000   1.0000   1.0000   1.0000   1.0000   1.0000
     1.0000   1.0000   1.0000   1.0000   1.0000   1.0000   1.0000   1.0000
     1.0000   1.0000   1.0000   1.0000   1.0000   1.0000   1.0000   1.0000
     1.0000   1.0000   1.0000   1.0000   1.0000   1.0000   1.0000   1.0000
     1.0000   1.0000   1.0000   1.0000   1.0000   1.0000   1.0000   1.0000
     1.0000   0.0000   0.0000   0.0000   0.0000   0.0000   0.0000   0.0000
     0.0000   0.0000   0.0000   0.0000   0.0000   0.0000   0.0000   0.0000
     0.0000

          k = 0.4167 0.3392-0.0727 ( 18963 PWs)   bands (ev):

   -72.6412 -63.7480 -63.7362 -63.7017 -39.1728 -38.6099 -38.5426 -32.5198
   -32.5015 -32.4902 -28.1991 -28.1475 -28.1348 -28.0697 -28.0363 -27.9893
    -7.6360  -7.1045  -6.8255  -6.5885  -6.5305  -6.1708  -6.0383  -5.9574
     4.0359   4.7894   4.9241   5.2538   5.3990   5.4987   5.9166   6.1646
     6.3136   6.6404   6.8114   7.1582   7.5105   7.6070   7.8862   8.0208
     8.2922   8.4519   8.6925   8.9941   9.0962   9.2245   9.5206   9.6491
    10.4156  13.5805  14.1456  14.1713  14.3472  14.6440  15.1551  16.4781
    16.6829  16.9055  17.1025  17.1686  17.2802  17.7357  17.7939  18.2603
    18.5193

     occupation numbers 
     1.0000   1.0000   1.0000   1.0000   1.0000   1.0000   1.0000   1.0000
     1.0000   1.0000   1.0000   1.0000   1.0000   1.0000   1.0000   1.0000
     1.0000   1.0000   1.0000   1.0000   1.0000   1.0000   1.0000   1.0000
     1.0000   1.0000   1.0000   1.0000   1.0000   1.0000   1.0000   1.0000
     1.0000   1.0000   1.0000   1.0000   1.0000   1.0000   1.0000   1.0000
     1.0000   1.0000   1.0000   1.0000   1.0000   1.0000   1.0000   1.0000
     1.0000   0.0000   0.0000   0.0000   0.0000   0.0000   0.0000   0.0000
     0.0000   0.0000   0.0000   0.0000   0.0000   0.0000   0.0000   0.0000
     0.0000

     the Fermi energy is    12.6410 ev

!    total energy              =   -1035.28529387 Ry
     estimated scf accuracy    <          9.9E-10 Ry
     smearing contrib. (-TS)   =       0.00000000 Ry
     internal energy E=F+TS    =   -1035.28529387 Ry

     The total energy is F=E-TS. E is the sum of the following terms:
     one-electron contribution =    -394.33466110 Ry
     hartree contribution      =     255.38824119 Ry
     xc contribution           =    -203.84997708 Ry
     ewald contribution        =    -692.61316887 Ry
     Hubbard energy            =       0.12427199 Ry

     total magnetization       =     9.00 Bohr mag/cell
     absolute magnetization    =     9.02 Bohr mag/cell

     convergence has been achieved in  99 iterations

     Writing all to output data dir ./tmp/MnFeWO4_FM/MnFeWO4_FM.save/ :
     XML data file, charge density
     init_run     :      3.99s CPU      4.11s WALL (       1 calls)
     electrons    :   1172.01s CPU   1182.02s WALL (       1 calls)

     Called by init_run:
     wfcinit      :      3.94s CPU      4.04s WALL (       1 calls)
     wfcinit:atom :      0.02s CPU      0.02s WALL (     108 calls)
     wfcinit:wfcr :      3.06s CPU      3.13s WALL (     108 calls)
     potinit      :      0.01s CPU      0.02s WALL (       1 calls)
     hinit0       :      0.01s CPU      0.02s WALL (       1 calls)

     Called by electrons:
     c_bands      :   1067.14s CPU   1075.71s WALL (      99 calls)
     sum_band     :    102.69s CPU    103.88s WALL (      99 calls)
     v_of_rho     :      0.90s CPU      0.93s WALL (     100 calls)
     v_h          :      0.02s CPU      0.03s WALL (     100 calls)
     v_xc         :      0.88s CPU      0.88s WALL (     100 calls)
     mix_rho      :      1.22s CPU      1.24s WALL (      99 calls)

     Called by c_bands:
     init_us_2    :     13.33s CPU     13.70s WALL (   21600 calls)
     cegterg      :   1000.91s CPU   1008.69s WALL (   10692 calls)

     Called by sum_band:
     sum_band:wei :      0.79s CPU      0.80s WALL (      99 calls)
     sum_band:loo :     96.39s CPU     97.47s WALL (      99 calls)
     sum_band:buf :      1.38s CPU      1.40s WALL (   10692 calls)
     sum_band:ini :      4.41s CPU      4.46s WALL (   10692 calls)

     Called by *egterg:
     cdiaghg      :    189.15s CPU    189.80s WALL (   62190 calls)
     cegterg:over :     52.64s CPU     52.91s WALL (   51498 calls)
     cegterg:upda :     30.45s CPU     30.61s WALL (   51498 calls)
     cegterg:last :     52.03s CPU     52.28s WALL (   24551 calls)
     h_psi        :    653.23s CPU    659.75s WALL (   62298 calls)
     g_psi        :      2.22s CPU      2.23s WALL (   51498 calls)

     Called by h_psi:
     h_psi:calbec :     78.31s CPU     78.87s WALL (   62298 calls)
     vloc_psi     :    479.35s CPU    484.86s WALL (   62298 calls)
     add_vuspsi   :     73.83s CPU     74.20s WALL (   62298 calls)
     vhpsi        :     18.60s CPU     18.70s WALL (   62298 calls)

     General routines
     calbec       :     97.28s CPU     98.02s WALL (  135396 calls)
     fft          :      0.37s CPU      0.38s WALL (    1898 calls)
     ffts         :      0.64s CPU      0.64s WALL (    3196 calls)
     fftw         :    533.34s CPU    539.42s WALL ( 4509398 calls)
 
     Parallel routines

     Hubbard U routines
     new_ns       :      5.33s CPU      5.43s WALL (      99 calls)
     vhpsi        :     18.60s CPU     18.70s WALL (   62298 calls)
 
     PWSCF        :  19m36.07s CPU  19m46.34s WALL

 
   This run was terminated on:   9:12:59   9Mar2026            

=------------------------------------------------------------------------------=
   JOB DONE.
=------------------------------------------------------------------------------=
