
     Program PWSCF v.7.4.1 starts on  9Mar2026 at  8:53:12 
        Git branch: heads/qe-7.4.1
        Last git commit: 500de340b820e1cb8c05f2d8bb8fced102f377c1-dirty
        Last git commit date: Fri Feb 7 14:59:05 2025 +0000
        Last git commit subject: Merge branch 'qe-7.4.1' into 'master'

     This program is part of the open-source Quantum ESPRESSO suite
     for quantum simulation of materials; please cite
         "P. Giannozzi et al., J. Phys.:Condens. Matter 21 395502 (2009);
         "P. Giannozzi et al., J. Phys.:Condens. Matter 29 465901 (2017);
         "P. Giannozzi et al., J. Chem. Phys. 152 154105 (2020);
          URL http://www.quantum-espresso.org", 
     in publications or presentations arising from this work. More details at
     http://www.quantum-espresso.org/quote

     Parallel version (MPI), running on    24 processors

     MPI processes distributed on     1 nodes
     722865 MiB available memory on the printing compute node when the environment starts
 
     Reading input from inputs_AFM/MnCoWO4_AFM.in

     Current dimensions of program PWSCF are:
     Max number of different atomic species (ntypx) = 10
     Max number of k-points (npk) =  40000
     Max angular momentum in pseudopotentials (lmaxx) =  4
     Message from routine setup:
     using ibrav=0 with symmetry is DISCOURAGED, use correct ibrav instead
 
     R & G space division:  proc/nbgrp/npool/nimage =      24
     Subspace diagonalization in iterative solution of the eigenvalue problem:
     a serial algorithm will be used

 
     Parallelization info
     --------------------
     sticks:   dense  smooth     PW     G-vecs:    dense   smooth      PW
     Min         145     145     39                 6336     6336     898
     Max         146     146     40                 6342     6342     902
     Sum        3497    3497    949               152147   152147   21597
 
     Using Slab Decomposition
 


     bravais-lattice index     =            0
     lattice parameter (alat)  =       8.6714  a.u.
     unit-cell volume          =     856.9309 (a.u.)^3
     number of atoms/cell      =           12
     number of atomic types    =            4
     number of electrons       =       108.00
     number of Kohn-Sham states=           65
     kinetic-energy cutoff     =     120.0000  Ry
     charge density cutoff     =     480.0000  Ry
     scf convergence threshold =      1.0E-09
     mixing beta               =       0.7000
     number of iterations used =            8  local-TF  mixing
     Exchange-correlation= PBESOL
                           (   1   4  10   8   0   0   0)
     Hubbard projectors: ortho-atomic
     Hubbard parameters of DFT+U (Dudarev formulation) in eV:
     U(Mn-3d) =  4.6500
     U(Co-3d) =  7.8400

     Internal variables: lda_plus_u = T, lda_plus_u_kind = 0

     celldm(1)=   8.671393  celldm(2)=   0.000000  celldm(3)=   0.000000
     celldm(4)=   0.000000  celldm(5)=   0.000000  celldm(6)=   0.000000

     crystal axes: (cart. coord. in units of alat)
               a(1) = (   0.999997   0.000000  -0.002446 )  
               a(2) = (   0.000000   1.222202   0.000000 )  
               a(3) = (  -0.013088   0.000000   1.075351 )  

     reciprocal axes: (cart. coord. in units 2 pi/alat)
               b(1) = (  1.000033  0.000000  0.012172 )  
               b(2) = (  0.000000  0.818195  0.000000 )  
               b(3) = (  0.002274  0.000000  0.929956 )  


     PseudoPot. # 1 for Mn read from file:
     pseudo_dojo_pbesol/Mn.upf
     MD5 check sum: ef44e22c4884c1dd3870421f9f7ffd72
     Pseudo is Norm-conserving + core correction, Zval = 15.0
     Generated using ONCVPSP code by D. R. Hamann
     Using radial grid of 1448 points,  6 beta functions with: 
                l(1) =   0
                l(2) =   0
                l(3) =   1
                l(4) =   1
                l(5) =   2
                l(6) =   2

     PseudoPot. # 2 for Co read from file:
     pseudo_dojo_pbesol/Co.upf
     MD5 check sum: da2f8eda8ae963674925720b0359a264
     Pseudo is Norm-conserving + core correction, Zval = 17.0
     Generated using ONCVPSP code by D. R. Hamann
     Using radial grid of 1388 points,  6 beta functions with: 
                l(1) =   0
                l(2) =   0
                l(3) =   1
                l(4) =   1
                l(5) =   2
                l(6) =   2

     PseudoPot. # 3 for W  read from file:
     pseudo_dojo_pbesol/W.upf
     MD5 check sum: b5ac44390825a9169ccdba7091ec60d0
     Pseudo is Norm-conserving + core correction, Zval = 14.0
     Generated using ONCVPSP code by D. R. Hamann
     Using radial grid of 1396 points,  8 beta functions with: 
                l(1) =   0
                l(2) =   0
                l(3) =   1
                l(4) =   1
                l(5) =   2
                l(6) =   2
                l(7) =   3
                l(8) =   3

     PseudoPot. # 4 for O  read from file:
     pseudo_dojo_pbesol/O.upf
     MD5 check sum: f226cbcd508cec715ff87a8f75a1dfba
     Pseudo is Norm-conserving + core correction, Zval =  6.0
     Generated using ONCVPSP code by D. R. Hamann
     Using radial grid of  936 points,  5 beta functions with: 
                l(1) =   0
                l(2) =   0
                l(3) =   1
                l(4) =   1
                l(5) =   2

     atomic species   valence    mass     pseudopotential
     Mn               15.00    54.93805     Mn( 1.00)
     Co               17.00    58.93319     Co( 1.00)
     W                14.00   183.84000     W ( 1.00)
     O                 6.00    15.99940     O ( 1.00)

     Starting magnetic structure 
     atomic species   magnetization
     Mn              0.200
     Co             -0.200
     W               0.000
     O               0.000

      2 Sym. Ops. (no inversion) found ( 1 have fractional translation)


                                    s                        frac. trans.

      isym =  1     identity                                     

 cryst.   s( 1) = (     1          0          0      )
                  (     0          1          0      )
                  (     0          0          1      )

 cart.    s( 1) = (  1.0000000  0.0000000  0.0000000 )
                  (  0.0000000  1.0000000  0.0000000 )
                  ( -0.0000000  0.0000000  1.0000000 )


      isym =  2     180 deg rotation - cart. axis [0,1,0]        

 cryst.   s( 2) = (    -1          0          0      )    f =( -0.0000000 )
                  (     0          1          0      )       (  0.0000000 )
                  (     0          0         -1      )       (  0.5000000 )

 cart.    s( 2) = ( -1.0000000  0.0000000 -0.0000000 )    f =( -0.0065442 )
                  (  0.0000000  1.0000000  0.0000000 )       (  0.0000000 )
                  (  0.0000000  0.0000000 -1.0000000 )       (  0.5376757 )


   Cartesian axes

     site n.     atom                  positions (alat units)
         1        Mn     tau(   1) = (   0.4901822   0.8241644   0.8052906  )
         2        Co     tau(   2) = (   0.4967264   0.4063911   0.2676149  )
         3        W      tau(   3) = (  -0.0098164   0.2185570   0.8065135  )
         4        W      tau(   4) = (  -0.0032721   1.0054130   0.2688378  )
         5        O      tau(   5) = (   0.2440311   0.4615555   0.9704372  )
         6        O      tau(   6) = (   0.7363332   0.4615555   0.6401441  )
         7        O      tau(   7) = (   0.7433272   0.7541680   0.1102526  )
         8        O      tau(   8) = (   0.2501255   0.7541680   0.4249773  )
         9        O      tau(   9) = (   0.2043278   1.0977234   1.0092419  )
        10        O      tau(  10) = (   0.7760365   1.0977234   0.6013393  )
        11        O      tau(  11) = (   0.7752132   0.1258962   0.0641851  )
        12        O      tau(  12) = (   0.2182396   0.1258962   0.4710448  )

   Crystallographic axes

     site n.     atom                  positions (cryst. coord.)
         1        Mn     tau(   1) = (  0.5000000  0.6743275  0.7500000  )
         2        Co     tau(   2) = (  0.5000000  0.3325073  0.2500000  )
         3        W      tau(   3) = ( -0.0000000  0.1788224  0.7500000  )
         4        W      tau(   4) = ( -0.0000000  0.8226243  0.2500000  )
         5        O      tau(   5) = (  0.2558510  0.3776426  0.9030192  )
         6        O      tau(   6) = (  0.7441490  0.3776426  0.5969808  )
         7        O      tau(   7) = (  0.7446936  0.6170568  0.1042208  )
         8        O      tau(   8) = (  0.2553064  0.6170568  0.3957792  )
         9        O      tau(   9) = (  0.2166187  0.8981522  0.9390156  )
        10        O      tau(  10) = (  0.7833813  0.8981522  0.5609844  )
        11        O      tau(  11) = (  0.7760198  0.1030077  0.0614525  )
        12        O      tau(  12) = (  0.2239802  0.1030077  0.4385475  )

     number of k points=    54  Marzari-Vanderbilt smearing, width (Ry)=  0.0200
                       cart. coord. in units 2pi/alat
        k(    1) = (   0.0835256   0.0681829   0.0785107), wk =   0.0185185
        k(    2) = (   0.0839047   0.0681829   0.2335034), wk =   0.0185185
        k(    3) = (   0.0842838   0.0681829   0.3884961), wk =   0.0185185
        k(    4) = (   0.0823884   0.0681829  -0.3864675), wk =   0.0185185
        k(    5) = (   0.0827674   0.0681829  -0.2314748), wk =   0.0185185
        k(    6) = (   0.0831465   0.0681829  -0.0764820), wk =   0.0185185
        k(    7) = (   0.0835256   0.2045488   0.0785107), wk =   0.0185185
        k(    8) = (   0.0839047   0.2045488   0.2335034), wk =   0.0185185
        k(    9) = (   0.0842838   0.2045488   0.3884961), wk =   0.0185185
        k(   10) = (   0.0823884   0.2045488  -0.3864675), wk =   0.0185185
        k(   11) = (   0.0827674   0.2045488  -0.2314748), wk =   0.0185185
        k(   12) = (   0.0831465   0.2045488  -0.0764820), wk =   0.0185185
        k(   13) = (   0.0835256   0.3409147   0.0785107), wk =   0.0185185
        k(   14) = (   0.0839047   0.3409147   0.2335034), wk =   0.0185185
        k(   15) = (   0.0842838   0.3409147   0.3884961), wk =   0.0185185
        k(   16) = (   0.0823884   0.3409147  -0.3864675), wk =   0.0185185
        k(   17) = (   0.0827674   0.3409147  -0.2314748), wk =   0.0185185
        k(   18) = (   0.0831465   0.3409147  -0.0764820), wk =   0.0185185
        k(   19) = (   0.2501977   0.0681829   0.0805393), wk =   0.0185185
        k(   20) = (   0.2505768   0.0681829   0.2355320), wk =   0.0185185
        k(   21) = (   0.2509559   0.0681829   0.3905247), wk =   0.0185185
        k(   22) = (   0.2490605   0.0681829  -0.3844389), wk =   0.0185185
        k(   23) = (   0.2494396   0.0681829  -0.2294461), wk =   0.0185185
        k(   24) = (   0.2498186   0.0681829  -0.0744534), wk =   0.0185185
        k(   25) = (   0.2501977   0.2045488   0.0805393), wk =   0.0185185
        k(   26) = (   0.2505768   0.2045488   0.2355320), wk =   0.0185185
        k(   27) = (   0.2509559   0.2045488   0.3905247), wk =   0.0185185
        k(   28) = (   0.2490605   0.2045488  -0.3844389), wk =   0.0185185
        k(   29) = (   0.2494396   0.2045488  -0.2294461), wk =   0.0185185
        k(   30) = (   0.2498186   0.2045488  -0.0744534), wk =   0.0185185
        k(   31) = (   0.2501977   0.3409147   0.0805393), wk =   0.0185185
        k(   32) = (   0.2505768   0.3409147   0.2355320), wk =   0.0185185
        k(   33) = (   0.2509559   0.3409147   0.3905247), wk =   0.0185185
        k(   34) = (   0.2490605   0.3409147  -0.3844389), wk =   0.0185185
        k(   35) = (   0.2494396   0.3409147  -0.2294461), wk =   0.0185185
        k(   36) = (   0.2498186   0.3409147  -0.0744534), wk =   0.0185185
        k(   37) = (   0.4168699   0.0681829   0.0825679), wk =   0.0185185
        k(   38) = (   0.4172489   0.0681829   0.2375606), wk =   0.0185185
        k(   39) = (   0.4176280   0.0681829   0.3925533), wk =   0.0185185
        k(   40) = (   0.4157326   0.0681829  -0.3824102), wk =   0.0185185
        k(   41) = (   0.4161117   0.0681829  -0.2274175), wk =   0.0185185
        k(   42) = (   0.4164908   0.0681829  -0.0724248), wk =   0.0185185
        k(   43) = (   0.4168699   0.2045488   0.0825679), wk =   0.0185185
        k(   44) = (   0.4172489   0.2045488   0.2375606), wk =   0.0185185
        k(   45) = (   0.4176280   0.2045488   0.3925533), wk =   0.0185185
        k(   46) = (   0.4157326   0.2045488  -0.3824102), wk =   0.0185185
        k(   47) = (   0.4161117   0.2045488  -0.2274175), wk =   0.0185185
        k(   48) = (   0.4164908   0.2045488  -0.0724248), wk =   0.0185185
        k(   49) = (   0.4168699   0.3409147   0.0825679), wk =   0.0185185
        k(   50) = (   0.4172489   0.3409147   0.2375606), wk =   0.0185185
        k(   51) = (   0.4176280   0.3409147   0.3925533), wk =   0.0185185
        k(   52) = (   0.4157326   0.3409147  -0.3824102), wk =   0.0185185
        k(   53) = (   0.4161117   0.3409147  -0.2274175), wk =   0.0185185
        k(   54) = (   0.4164908   0.3409147  -0.0724248), wk =   0.0185185

                       cryst. coord.
        k(    1) = (   0.0833333   0.0833333   0.0833333), wk =   0.0185185
        k(    2) = (   0.0833333   0.0833333   0.2500000), wk =   0.0185185
        k(    3) = (   0.0833333   0.0833333   0.4166667), wk =   0.0185185
        k(    4) = (   0.0833333   0.0833333  -0.4166667), wk =   0.0185185
        k(    5) = (   0.0833333   0.0833333  -0.2500000), wk =   0.0185185
        k(    6) = (   0.0833333   0.0833333  -0.0833333), wk =   0.0185185
        k(    7) = (   0.0833333   0.2500000   0.0833333), wk =   0.0185185
        k(    8) = (   0.0833333   0.2500000   0.2500000), wk =   0.0185185
        k(    9) = (   0.0833333   0.2500000   0.4166667), wk =   0.0185185
        k(   10) = (   0.0833333   0.2500000  -0.4166667), wk =   0.0185185
        k(   11) = (   0.0833333   0.2500000  -0.2500000), wk =   0.0185185
        k(   12) = (   0.0833333   0.2500000  -0.0833333), wk =   0.0185185
        k(   13) = (   0.0833333   0.4166667   0.0833333), wk =   0.0185185
        k(   14) = (   0.0833333   0.4166667   0.2500000), wk =   0.0185185
        k(   15) = (   0.0833333   0.4166667   0.4166667), wk =   0.0185185
        k(   16) = (   0.0833333   0.4166667  -0.4166667), wk =   0.0185185
        k(   17) = (   0.0833333   0.4166667  -0.2500000), wk =   0.0185185
        k(   18) = (   0.0833333   0.4166667  -0.0833333), wk =   0.0185185
        k(   19) = (   0.2500000   0.0833333   0.0833333), wk =   0.0185185
        k(   20) = (   0.2500000   0.0833333   0.2500000), wk =   0.0185185
        k(   21) = (   0.2500000   0.0833333   0.4166667), wk =   0.0185185
        k(   22) = (   0.2500000   0.0833333  -0.4166667), wk =   0.0185185
        k(   23) = (   0.2500000   0.0833333  -0.2500000), wk =   0.0185185
        k(   24) = (   0.2500000   0.0833333  -0.0833333), wk =   0.0185185
        k(   25) = (   0.2500000   0.2500000   0.0833333), wk =   0.0185185
        k(   26) = (   0.2500000   0.2500000   0.2500000), wk =   0.0185185
        k(   27) = (   0.2500000   0.2500000   0.4166667), wk =   0.0185185
        k(   28) = (   0.2500000   0.2500000  -0.4166667), wk =   0.0185185
        k(   29) = (   0.2500000   0.2500000  -0.2500000), wk =   0.0185185
        k(   30) = (   0.2500000   0.2500000  -0.0833333), wk =   0.0185185
        k(   31) = (   0.2500000   0.4166667   0.0833333), wk =   0.0185185
        k(   32) = (   0.2500000   0.4166667   0.2500000), wk =   0.0185185
        k(   33) = (   0.2500000   0.4166667   0.4166667), wk =   0.0185185
        k(   34) = (   0.2500000   0.4166667  -0.4166667), wk =   0.0185185
        k(   35) = (   0.2500000   0.4166667  -0.2500000), wk =   0.0185185
        k(   36) = (   0.2500000   0.4166667  -0.0833333), wk =   0.0185185
        k(   37) = (   0.4166667   0.0833333   0.0833333), wk =   0.0185185
        k(   38) = (   0.4166667   0.0833333   0.2500000), wk =   0.0185185
        k(   39) = (   0.4166667   0.0833333   0.4166667), wk =   0.0185185
        k(   40) = (   0.4166667   0.0833333  -0.4166667), wk =   0.0185185
        k(   41) = (   0.4166667   0.0833333  -0.2500000), wk =   0.0185185
        k(   42) = (   0.4166667   0.0833333  -0.0833333), wk =   0.0185185
        k(   43) = (   0.4166667   0.2500000   0.0833333), wk =   0.0185185
        k(   44) = (   0.4166667   0.2500000   0.2500000), wk =   0.0185185
        k(   45) = (   0.4166667   0.2500000   0.4166667), wk =   0.0185185
        k(   46) = (   0.4166667   0.2500000  -0.4166667), wk =   0.0185185
        k(   47) = (   0.4166667   0.2500000  -0.2500000), wk =   0.0185185
        k(   48) = (   0.4166667   0.2500000  -0.0833333), wk =   0.0185185
        k(   49) = (   0.4166667   0.4166667   0.0833333), wk =   0.0185185
        k(   50) = (   0.4166667   0.4166667   0.2500000), wk =   0.0185185
        k(   51) = (   0.4166667   0.4166667   0.4166667), wk =   0.0185185
        k(   52) = (   0.4166667   0.4166667  -0.4166667), wk =   0.0185185
        k(   53) = (   0.4166667   0.4166667  -0.2500000), wk =   0.0185185
        k(   54) = (   0.4166667   0.4166667  -0.0833333), wk =   0.0185185

     Dense  grid:   152147 G-vectors     FFT dimensions: (  64,  75,  72)

     Dynamical RAM for                 wfc:       0.79 MB

     Dynamical RAM for     wfc (w. buffer):      85.62 MB

     Dynamical RAM for             U proj.:       0.12 MB

     Dynamical RAM for  U proj. (w. buff.):      13.17 MB

     Dynamical RAM for           str. fact:       0.39 MB

     Dynamical RAM for           local pot:       0.00 MB

     Dynamical RAM for          nlocal pot:       2.47 MB

     Dynamical RAM for                qrad:      16.87 MB

     Dynamical RAM for          rho,v,vnew:       1.24 MB

     Dynamical RAM for               rhoin:       0.41 MB

     Dynamical RAM for            rho*nmix:       3.10 MB

     Dynamical RAM for           G-vectors:       0.41 MB

     Dynamical RAM for          h,s,v(r/c):       0.77 MB

     Dynamical RAM for          <psi|beta>:       0.20 MB

     Dynamical RAM for                 psi:       1.57 MB

     Dynamical RAM for                hpsi:       1.57 MB

     Dynamical RAM for      wfcinit/wfcrot:       1.67 MB

     Estimated static dynamical RAM per process >     121.73 MB

     Estimated max dynamical RAM per process >     128.94 MB

     Estimated total dynamical RAM >       3.02 GB
     Generating pointlists ...
     new r_m :   0.1836 (alat units)  1.5922 (a.u.) for type    1
     new r_m :   0.1834 (alat units)  1.5901 (a.u.) for type    2
     new r_m :   0.1600 (alat units)  1.3870 (a.u.) for type    3
     new r_m :   0.1600 (alat units)  1.3870 (a.u.) for type    4

     Initial potential from superposition of free atoms

     starting charge     107.9983, renormalised to     108.0000

     HUBBARD ENERGY =    0.3457  (Ry)

     STARTING HUBBARD OCCUPATIONS:

     =================== HUBBARD OCCUPATIONS ===================
     ------------------------ ATOM    1 ------------------------
     Tr[ns(  1)] (up, down, total) =   5.00000  0.00000  5.00000
     Atomic magnetic moment for atom   1 =   5.00000
     SPIN  1
     eigenvalues:
       1.000  1.000  1.000  1.000  1.000
     eigenvectors (columns):
       1.000  0.000  0.000  0.000  0.000
       0.000  1.000  0.000  0.000  0.000
       0.000  0.000  1.000  0.000  0.000
       0.000  0.000  0.000  1.000  0.000
       0.000  0.000  0.000  0.000  1.000
     occupation matrix ns (before diag.):
       1.000  0.000  0.000  0.000  0.000
       0.000  1.000  0.000  0.000  0.000
       0.000  0.000  1.000  0.000  0.000
       0.000  0.000  0.000  1.000  0.000
       0.000  0.000  0.000  0.000  1.000
     SPIN  2
     eigenvalues:
       0.000  0.000  0.000  0.000  0.000
     eigenvectors (columns):
       1.000  0.000  0.000  0.000  0.000
       0.000  1.000  0.000  0.000  0.000
       0.000  0.000  1.000  0.000  0.000
       0.000  0.000  0.000  1.000  0.000
       0.000  0.000  0.000  0.000  1.000
     occupation matrix ns (before diag.):
       0.000  0.000  0.000  0.000  0.000
       0.000  0.000  0.000  0.000  0.000
       0.000  0.000  0.000  0.000  0.000
       0.000  0.000  0.000  0.000  0.000
       0.000  0.000  0.000  0.000  0.000
     ------------------------ ATOM    2 ------------------------
     Tr[ns(  2)] (up, down, total) =   2.00000  5.00000  7.00000
     Atomic magnetic moment for atom   2 =  -3.00000
     SPIN  1
     eigenvalues:
       0.400  0.400  0.400  0.400  0.400
     eigenvectors (columns):
       1.000  0.000  0.000  0.000  0.000
       0.000  1.000  0.000  0.000  0.000
       0.000  0.000  1.000  0.000  0.000
       0.000  0.000  0.000  1.000  0.000
       0.000  0.000  0.000  0.000  1.000
     occupation matrix ns (before diag.):
       0.400  0.000  0.000  0.000  0.000
       0.000  0.400  0.000  0.000  0.000
       0.000  0.000  0.400  0.000  0.000
       0.000  0.000  0.000  0.400  0.000
       0.000  0.000  0.000  0.000  0.400
     SPIN  2
     eigenvalues:
       1.000  1.000  1.000  1.000  1.000
     eigenvectors (columns):
       1.000  0.000  0.000  0.000  0.000
       0.000  1.000  0.000  0.000  0.000
       0.000  0.000  1.000  0.000  0.000
       0.000  0.000  0.000  1.000  0.000
       0.000  0.000  0.000  0.000  1.000
     occupation matrix ns (before diag.):
       1.000  0.000  0.000  0.000  0.000
       0.000  1.000  0.000  0.000  0.000
       0.000  0.000  1.000  0.000  0.000
       0.000  0.000  0.000  1.000  0.000
       0.000  0.000  0.000  0.000  1.000

     Number of occupied Hubbard levels =   12.0000

     Atomic wfc used for Hubbard projectors are orthogonalized

     Starting wfcs are   72 randomized atomic wfcs

     total cpu time spent up to now is        4.2 secs

     per-process dynamical memory:   171.9 Mb

     Self-consistent Calculation

     iteration #  1     ecut=   120.00 Ry     beta= 0.70
     Davidson diagonalization with overlap

---- Real-time Memory Report at c_bands before calling an iterative solver
           206 MiB given to the printing process from OS
           167 MiB allocation reported by mallinfo(arena+hblkhd)
        710254 MiB available memory on the node where the printing process lives
------------------
     ethr =  1.00E-02,  avg # of iterations =  2.0

     =================== HUBBARD OCCUPATIONS ===================
     ------------------------ ATOM    1 ------------------------
     Tr[ns(  1)] (up, down, total) =   4.95781  0.22863  5.18644
     Atomic magnetic moment for atom   1 =   4.72917
     SPIN  1
     eigenvalues:
       0.984  0.986  0.996  0.996  0.997
     eigenvectors (columns):
      -0.000  0.587 -0.000 -0.743 -0.321
      -0.000 -0.776 -0.000 -0.630  0.037
       0.524 -0.000 -0.852  0.000  0.000
       0.000  0.230 -0.000 -0.227  0.946
       0.852 -0.000  0.524 -0.000 -0.000
     occupation matrix ns (before diag.):
       0.992  0.005 -0.000 -0.002  0.000
       0.005  0.990 -0.000  0.002  0.000
      -0.000 -0.000  0.992 -0.000 -0.005
      -0.002  0.002 -0.000  0.996 -0.000
       0.000  0.000 -0.005 -0.000  0.987
     SPIN  2
     eigenvalues:
       0.022  0.023  0.025  0.079  0.080
     eigenvectors (columns):
       0.827  0.000 -0.177  0.000  0.534
       0.455  0.000 -0.349 -0.000 -0.819
       0.000 -0.820  0.000  0.572 -0.000
      -0.331 -0.000 -0.920 -0.000  0.208
      -0.000  0.572 -0.000  0.820 -0.000
     occupation matrix ns (before diag.):
       0.039 -0.025  0.000  0.007  0.000
      -0.025  0.061 -0.000 -0.009  0.000
       0.000 -0.000  0.041 -0.000  0.026
       0.007 -0.009 -0.000  0.027 -0.000
       0.000  0.000  0.026 -0.000  0.060
     ------------------------ ATOM    2 ------------------------
     Tr[ns(  2)] (up, down, total) =   2.21475  4.98395  7.19869
     Atomic magnetic moment for atom   2 =  -2.76920
     SPIN  1
     eigenvalues:
       0.115  0.116  0.573  0.681  0.731
     eigenvectors (columns):
       0.000 -0.524 -0.131 -0.000  0.842
      -0.000  0.816  0.204 -0.000  0.540
       0.559  0.000  0.000 -0.829 -0.000
       0.000 -0.242  0.970  0.000 -0.000
       0.829  0.000 -0.000  0.559  0.000
     occupation matrix ns (before diag.):
       0.559  0.267 -0.000 -0.058  0.000
       0.267  0.314 -0.000  0.090  0.000
      -0.000 -0.000  0.504 -0.000 -0.262
      -0.058  0.090 -0.000  0.546 -0.000
       0.000  0.000 -0.262 -0.000  0.292
     SPIN  2
     eigenvalues:
       0.994  0.994  0.998  0.998  0.999
     eigenvectors (columns):
       0.000  0.585 -0.000  0.763  0.274
      -0.000 -0.769 -0.000  0.630 -0.113
       0.528 -0.000 -0.850 -0.000  0.000
       0.000  0.259 -0.000  0.145 -0.955
       0.850 -0.000  0.528  0.000  0.000
     occupation matrix ns (before diag.):
       0.997  0.002 -0.000 -0.001  0.000
       0.002  0.996 -0.000  0.001  0.000
      -0.000 -0.000  0.997 -0.000 -0.002
      -0.001  0.001 -0.000  0.998 -0.000
       0.000  0.000 -0.002 -0.000  0.995

     Number of occupied Hubbard levels =   12.3851

     HUBBARD ENERGY =    0.2970  (Ry)

     total cpu time spent up to now is       14.5 secs

     total energy              =   -1089.48485713 Ry
     estimated scf accuracy    <       4.23796384 Ry

     total magnetization       =     2.00 Bohr mag/cell
     absolute magnetization    =     7.80 Bohr mag/cell

     iteration #  2     ecut=   120.00 Ry     beta= 0.70
     Davidson diagonalization with overlap

---- Real-time Memory Report at c_bands before calling an iterative solver
           214 MiB given to the printing process from OS
           172 MiB allocation reported by mallinfo(arena+hblkhd)
        709435 MiB available memory on the node where the printing process lives
------------------
     ethr =  3.92E-03,  avg # of iterations =  2.0

     =================== HUBBARD OCCUPATIONS ===================
     ------------------------ ATOM    1 ------------------------
     Tr[ns(  1)] (up, down, total) =   4.87174  0.29899  5.17073
     Atomic magnetic moment for atom   1 =   4.57275
     SPIN  1
     eigenvalues:
       0.936  0.953  0.994  0.994  0.994
     eigenvectors (columns):
      -0.541 -0.000  0.516  0.664  0.000
       0.815  0.000  0.517  0.262  0.000
       0.000  0.512  0.000  0.000 -0.859
      -0.208  0.000  0.683 -0.700 -0.000
      -0.000  0.859 -0.000 -0.000  0.512
     occupation matrix ns (before diag.):
       0.977  0.025 -0.000 -0.007  0.000
       0.025  0.956 -0.000  0.010  0.000
      -0.000 -0.000  0.984 -0.000 -0.018
      -0.007  0.010 -0.000  0.992 -0.000
       0.000  0.000 -0.018 -0.000  0.964
     SPIN  2
     eigenvalues:
       0.030  0.030  0.035  0.101  0.103
     eigenvectors (columns):
      -0.000  0.847  0.001  0.000  0.532
      -0.000  0.516 -0.244 -0.000 -0.821
      -0.823 -0.000  0.000  0.568 -0.000
       0.000 -0.129 -0.970 -0.000  0.207
       0.568  0.000 -0.000  0.823 -0.000
     occupation matrix ns (before diag.):
       0.051 -0.032  0.000  0.008  0.000
      -0.032  0.079 -0.000 -0.011  0.000
       0.000 -0.000  0.053 -0.000  0.033
       0.008 -0.011 -0.000  0.038 -0.000
       0.000  0.000  0.033 -0.000  0.078
     ------------------------ ATOM    2 ------------------------
     Tr[ns(  2)] (up, down, total) =   2.45881  4.97155  7.43036
     Atomic magnetic moment for atom   2 =  -2.51274
     SPIN  1
     eigenvalues:
       0.103  0.103  0.293  0.975  0.984
     eigenvectors (columns):
       0.000  0.527 -0.135 -0.000  0.839
      -0.000 -0.813  0.210 -0.000  0.544
       0.566 -0.000 -0.000 -0.825 -0.000
       0.000  0.250  0.968 -0.000 -0.001
       0.825 -0.000 -0.000  0.566  0.000
     occupation matrix ns (before diag.):
       0.727  0.397 -0.000 -0.026  0.000
       0.397  0.372 -0.000  0.038  0.000
      -0.000 -0.000  0.696  0.000 -0.407
      -0.026  0.038  0.000  0.281 -0.000
       0.000  0.000 -0.407 -0.000  0.382
     SPIN  2
     eigenvalues:
       0.989  0.990  0.997  0.997  0.998
     eigenvectors (columns):
      -0.577 -0.000  0.812  0.000 -0.083
       0.774  0.000  0.577  0.000  0.262
      -0.000  0.495  0.000 -0.869 -0.000
      -0.260  0.000 -0.087 -0.000  0.962
      -0.000  0.869 -0.000  0.495  0.000
     occupation matrix ns (before diag.):
       0.995  0.003 -0.000 -0.001  0.000
       0.003  0.993 -0.000  0.002  0.000
      -0.000 -0.000  0.996 -0.000 -0.003
      -0.001  0.002 -0.000  0.997 -0.000
       0.000  0.000 -0.003 -0.000  0.992

     Number of occupied Hubbard levels =   12.6011

     HUBBARD ENERGY =    0.2460  (Ry)

     total cpu time spent up to now is       24.6 secs

     total energy              =   -1090.35836050 Ry
     estimated scf accuracy    <       0.22736344 Ry

     total magnetization       =     2.00 Bohr mag/cell
     absolute magnetization    =     7.55 Bohr mag/cell

     iteration #  3     ecut=   120.00 Ry     beta= 0.70
     Davidson diagonalization with overlap

---- Real-time Memory Report at c_bands before calling an iterative solver
           215 MiB given to the printing process from OS
           173 MiB allocation reported by mallinfo(arena+hblkhd)
        709137 MiB available memory on the node where the printing process lives
------------------
     ethr =  2.11E-04,  avg # of iterations =  6.9

     =================== HUBBARD OCCUPATIONS ===================
     ------------------------ ATOM    1 ------------------------
     Tr[ns(  1)] (up, down, total) =   4.92017  0.28597  5.20614
     Atomic magnetic moment for atom   1 =   4.63420
     SPIN  1
     eigenvalues:
       0.968  0.969  0.994  0.995  0.995
     eigenvectors (columns):
       0.582 -0.000 -0.750  0.000 -0.315
      -0.782  0.000 -0.622  0.000  0.034
       0.000  0.519 -0.000 -0.855  0.000
       0.221  0.000 -0.227  0.000  0.948
       0.000  0.855  0.000  0.519 -0.000
     occupation matrix ns (before diag.):
       0.985  0.012 -0.000 -0.004  0.000
       0.012  0.978 -0.000  0.005  0.000
      -0.000 -0.000  0.988 -0.000 -0.011
      -0.004  0.005 -0.000  0.993 -0.000
       0.000  0.000 -0.011 -0.000  0.976
     SPIN  2
     eigenvalues:
       0.028  0.028  0.033  0.098  0.099
     eigenvectors (columns):
      -0.000  0.848 -0.017  0.000  0.530
      -0.000  0.509 -0.254 -0.000 -0.823
      -0.823 -0.000  0.000  0.569 -0.000
       0.000 -0.149 -0.967 -0.000  0.207
       0.569  0.000 -0.000  0.823 -0.000
     occupation matrix ns (before diag.):
       0.048 -0.031  0.000  0.008  0.000
      -0.031  0.076 -0.000 -0.011  0.000
       0.000 -0.000  0.051 -0.000  0.033
       0.008 -0.011 -0.000  0.036 -0.000
       0.000  0.000  0.033 -0.000  0.075
     ------------------------ ATOM    2 ------------------------
     Tr[ns(  2)] (up, down, total) =   2.22313  4.96525  7.18838
     Atomic magnetic moment for atom   2 =  -2.74212
     SPIN  1
     eigenvalues:
       0.066  0.089  0.092  0.988  0.989
     eigenvectors (columns):
      -0.093  0.545  0.000  0.833  0.000
       0.159 -0.818 -0.000  0.553  0.000
       0.000 -0.000  0.583  0.000 -0.813
       0.983  0.184 -0.000 -0.010 -0.000
       0.000 -0.000  0.813 -0.000  0.583
     occupation matrix ns (before diag.):
       0.712  0.415 -0.000 -0.006  0.000
       0.415  0.363 -0.000 -0.009  0.000
      -0.000 -0.000  0.684  0.000 -0.425
      -0.006 -0.009  0.000  0.067 -0.000
       0.000  0.000 -0.425 -0.000  0.396
     SPIN  2
     eigenvalues:
       0.987  0.989  0.996  0.996  0.997
     eigenvectors (columns):
       0.604 -0.000  0.789  0.000  0.114
      -0.754  0.000  0.612  0.000 -0.239
       0.000  0.504  0.000 -0.863  0.000
       0.258  0.000 -0.058 -0.000 -0.964
       0.000  0.863 -0.000  0.504  0.000
     occupation matrix ns (before diag.):
       0.993  0.004 -0.000 -0.002  0.000
       0.004  0.991 -0.000  0.002  0.000
      -0.000 -0.000  0.994 -0.000 -0.003
      -0.002  0.002 -0.000  0.997 -0.000
       0.000  0.000 -0.003 -0.000  0.991

     Number of occupied Hubbard levels =   12.3945

     HUBBARD ENERGY =    0.1757  (Ry)

     total cpu time spent up to now is       36.1 secs

     total energy              =   -1090.44512359 Ry
     estimated scf accuracy    <       0.07611108 Ry

     total magnetization       =     2.00 Bohr mag/cell
     absolute magnetization    =     7.77 Bohr mag/cell

     iteration #  4     ecut=   120.00 Ry     beta= 0.70
     Davidson diagonalization with overlap

---- Real-time Memory Report at c_bands before calling an iterative solver
           216 MiB given to the printing process from OS
           173 MiB allocation reported by mallinfo(arena+hblkhd)
        709087 MiB available memory on the node where the printing process lives
------------------
     c_bands:  1 eigenvalues not converged
     ethr =  7.05E-05,  avg # of iterations =  4.0

     =================== HUBBARD OCCUPATIONS ===================
     ------------------------ ATOM    1 ------------------------
     Tr[ns(  1)] (up, down, total) =   4.92085  0.27523  5.19608
     Atomic magnetic moment for atom   1 =   4.64563
     SPIN  1
     eigenvalues:
       0.968  0.969  0.994  0.994  0.995
     eigenvectors (columns):
      -0.584 -0.000 -0.777  0.000  0.234
       0.781  0.000 -0.617  0.000 -0.101
      -0.000  0.526 -0.000 -0.851  0.000
      -0.223  0.000 -0.124  0.000 -0.967
      -0.000  0.851  0.000  0.526  0.000
     occupation matrix ns (before diag.):
       0.985  0.012 -0.000 -0.004  0.000
       0.012  0.978 -0.000  0.005  0.000
      -0.000 -0.000  0.987 -0.000 -0.011
      -0.004  0.005 -0.000  0.994 -0.000
       0.000  0.000 -0.011 -0.000  0.976
     SPIN  2
     eigenvalues:
       0.027  0.027  0.031  0.095  0.095
     eigenvectors (columns):
       0.847  0.000 -0.031  0.000  0.531
       0.505  0.000 -0.263 -0.000 -0.822
       0.000 -0.822  0.000  0.570 -0.000
      -0.165 -0.000 -0.964 -0.000  0.207
      -0.000  0.570 -0.000  0.822 -0.000
     occupation matrix ns (before diag.):
       0.046 -0.030  0.000  0.008  0.000
      -0.030  0.074 -0.000 -0.011  0.000
       0.000 -0.000  0.049 -0.000  0.032
       0.008 -0.011 -0.000  0.034 -0.000
       0.000  0.000  0.032 -0.000  0.073
     ------------------------ ATOM    2 ------------------------
     Tr[ns(  2)] (up, down, total) =   2.19709  4.96809  7.16518
     Atomic magnetic moment for atom   2 =  -2.77100
     SPIN  1
     eigenvalues:
       0.036  0.087  0.093  0.990  0.991
     eigenvectors (columns):
      -0.113  0.554 -0.000  0.825  0.000
       0.194 -0.802  0.000  0.565  0.000
       0.000  0.000  0.603  0.000 -0.798
       0.974  0.224 -0.000 -0.017 -0.000
       0.000  0.000  0.798 -0.000  0.603
     occupation matrix ns (before diag.):
       0.701  0.422 -0.000 -0.007  0.000
       0.422  0.373 -0.000 -0.018  0.000
      -0.000 -0.000  0.665  0.000 -0.432
      -0.007 -0.018  0.000  0.039 -0.000
       0.000  0.000 -0.432 -0.000  0.420
     SPIN  2
     eigenvalues:
       0.988  0.990  0.996  0.996  0.998
     eigenvectors (columns):
       0.617 -0.000 -0.777  0.000 -0.125
      -0.744  0.000 -0.628  0.000  0.227
      -0.000  0.526 -0.000 -0.851 -0.000
       0.255  0.000  0.048 -0.000  0.966
       0.000  0.851  0.000  0.526 -0.000
     occupation matrix ns (before diag.):
       0.993  0.004 -0.000 -0.001  0.000
       0.004  0.992 -0.000  0.002  0.000
      -0.000 -0.000  0.994 -0.000 -0.003
      -0.001  0.002 -0.000  0.997 -0.000
       0.000  0.000 -0.003 -0.000  0.992

     Number of occupied Hubbard levels =   12.3613

     HUBBARD ENERGY =    0.1238  (Ry)

     total cpu time spent up to now is       45.7 secs

     total energy              =   -1090.45600241 Ry
     estimated scf accuracy    <       0.01439126 Ry

     total magnetization       =     2.00 Bohr mag/cell
     absolute magnetization    =     7.79 Bohr mag/cell

     iteration #  5     ecut=   120.00 Ry     beta= 0.70
     Davidson diagonalization with overlap

---- Real-time Memory Report at c_bands before calling an iterative solver
           217 MiB given to the printing process from OS
           173 MiB allocation reported by mallinfo(arena+hblkhd)
        709048 MiB available memory on the node where the printing process lives
------------------
     c_bands:  1 eigenvalues not converged
     c_bands:  1 eigenvalues not converged
     ethr =  1.33E-05,  avg # of iterations =  8.8

     =================== HUBBARD OCCUPATIONS ===================
     ------------------------ ATOM    1 ------------------------
     Tr[ns(  1)] (up, down, total) =   4.91977  0.27148  5.19125
     Atomic magnetic moment for atom   1 =   4.64828
     SPIN  1
     eigenvalues:
       0.968  0.969  0.994  0.994  0.995
     eigenvectors (columns):
       0.585 -0.000 -0.778  0.000 -0.230
      -0.780  0.000 -0.617  0.000  0.105
       0.000  0.529 -0.000 -0.849  0.000
       0.224  0.000 -0.118  0.000  0.967
       0.000  0.849  0.000  0.529 -0.000
     occupation matrix ns (before diag.):
       0.985  0.012 -0.000 -0.004  0.000
       0.012  0.978 -0.000  0.005  0.000
      -0.000 -0.000  0.987 -0.000 -0.012
      -0.004  0.005 -0.000  0.993 -0.000
       0.000  0.000 -0.012 -0.000  0.976
     SPIN  2
     eigenvalues:
       0.026  0.027  0.031  0.093  0.094
     eigenvectors (columns):
       0.847  0.000 -0.037  0.000  0.531
       0.504  0.000 -0.267 -0.000 -0.822
       0.000 -0.821  0.000  0.571 -0.000
      -0.172 -0.000 -0.963 -0.000  0.208
      -0.000  0.571 -0.000  0.821 -0.000
     occupation matrix ns (before diag.):
       0.046 -0.030  0.000  0.008  0.000
      -0.030  0.073 -0.000 -0.010  0.000
       0.000 -0.000  0.048 -0.000  0.031
       0.008 -0.010 -0.000  0.033 -0.000
       0.000  0.000  0.031 -0.000  0.072
     ------------------------ ATOM    2 ------------------------
     Tr[ns(  2)] (up, down, total) =   2.19749  4.96999  7.16747
     Atomic magnetic moment for atom   2 =  -2.77250
     SPIN  1
     eigenvalues:
       0.028  0.088  0.097  0.992  0.993
     eigenvectors (columns):
      -0.115  0.570  0.000  0.813  0.000
       0.201 -0.788 -0.000  0.581  0.000
       0.000  0.000  0.631  0.000 -0.776
       0.973  0.230 -0.000 -0.024 -0.000
       0.000 -0.000  0.776 -0.000  0.631
     occupation matrix ns (before diag.):
       0.685  0.429 -0.000 -0.011  0.000
       0.429  0.391 -0.000 -0.024  0.000
      -0.000 -0.000  0.636  0.000 -0.438
      -0.011 -0.024  0.000  0.032 -0.000
       0.000  0.000 -0.438 -0.000  0.453
     SPIN  2
     eigenvalues:
       0.989  0.990  0.996  0.996  0.998
     eigenvectors (columns):
       0.618 -0.000 -0.778  0.000 -0.117
      -0.744  0.000 -0.626  0.000  0.231
      -0.000  0.529 -0.000 -0.849 -0.000
       0.253  0.000  0.056 -0.000  0.966
       0.000  0.849  0.000  0.529 -0.000
     occupation matrix ns (before diag.):
       0.993  0.003 -0.000 -0.001  0.000
       0.003  0.992 -0.000  0.002  0.000
      -0.000 -0.000  0.995 -0.000 -0.003
      -0.001  0.002 -0.000  0.998 -0.000
       0.000  0.000 -0.003 -0.000  0.992

     Number of occupied Hubbard levels =   12.3587

     HUBBARD ENERGY =    0.1350  (Ry)

     total cpu time spent up to now is       59.2 secs

     total energy              =   -1090.45902645 Ry
     estimated scf accuracy    <       0.00216846 Ry

     total magnetization       =     2.00 Bohr mag/cell
     absolute magnetization    =     7.80 Bohr mag/cell

     iteration #  6     ecut=   120.00 Ry     beta= 0.70
     Davidson diagonalization with overlap

---- Real-time Memory Report at c_bands before calling an iterative solver
           217 MiB given to the printing process from OS
           174 MiB allocation reported by mallinfo(arena+hblkhd)
        708998 MiB available memory on the node where the printing process lives
------------------
     ethr =  2.01E-06,  avg # of iterations =  5.2

     =================== HUBBARD OCCUPATIONS ===================
     ------------------------ ATOM    1 ------------------------
     Tr[ns(  1)] (up, down, total) =   4.92049  0.27216  5.19265
     Atomic magnetic moment for atom   1 =   4.64833
     SPIN  1
     eigenvalues:
       0.968  0.969  0.994  0.994  0.995
     eigenvectors (columns):
       0.585 -0.000 -0.772  0.000 -0.249
      -0.780  0.000 -0.620  0.000  0.089
       0.000  0.530 -0.000 -0.848  0.000
       0.223  0.000 -0.142  0.000  0.964
       0.000  0.848  0.000  0.530 -0.000
     occupation matrix ns (before diag.):
       0.985  0.012 -0.000 -0.004  0.000
       0.012  0.978 -0.000  0.005  0.000
      -0.000 -0.000  0.987 -0.000 -0.011
      -0.004  0.005 -0.000  0.994 -0.000
       0.000  0.000 -0.011 -0.000  0.976
     SPIN  2
     eigenvalues:
       0.027  0.027  0.031  0.094  0.094
     eigenvectors (columns):
       0.847  0.000 -0.040  0.000  0.531
       0.503  0.000 -0.269 -0.000 -0.822
       0.000 -0.821  0.000  0.571 -0.000
      -0.175 -0.000 -0.962 -0.000  0.207
      -0.000  0.571 -0.000  0.821 -0.000
     occupation matrix ns (before diag.):
       0.046 -0.030  0.000  0.008  0.000
      -0.030  0.073 -0.000 -0.010  0.000
       0.000 -0.000  0.048 -0.000  0.031
       0.008 -0.010 -0.000  0.034 -0.000
       0.000  0.000  0.031 -0.000  0.072
     ------------------------ ATOM    2 ------------------------
     Tr[ns(  2)] (up, down, total) =   2.20318  4.97084  7.17403
     Atomic magnetic moment for atom   2 =  -2.76766
     SPIN  1
     eigenvalues:
       0.030  0.089  0.099  0.992  0.993
     eigenvectors (columns):
      -0.115  0.584  0.000  0.803  0.000
       0.201 -0.778 -0.000  0.595  0.000
       0.000 -0.000  0.655  0.000 -0.755
       0.973  0.230 -0.000 -0.027 -0.000
       0.000 -0.000  0.755 -0.000  0.655
     occupation matrix ns (before diag.):
       0.671  0.433 -0.000 -0.013  0.000
       0.433  0.407 -0.000 -0.026  0.000
      -0.000 -0.000  0.609  0.000 -0.442
      -0.013 -0.026  0.000  0.034 -0.000
       0.000  0.000 -0.442 -0.000  0.483
     SPIN  2
     eigenvalues:
       0.989  0.991  0.996  0.997  0.998
     eigenvectors (columns):
       0.607 -0.000  0.787  0.000  0.110
      -0.753  0.000  0.614  0.000 -0.235
      -0.000  0.513  0.000 -0.858  0.000
       0.253  0.000 -0.060 -0.000 -0.966
       0.000  0.858 -0.000  0.513  0.000
     occupation matrix ns (before diag.):
       0.994  0.003 -0.000 -0.001  0.000
       0.003  0.992 -0.000  0.002  0.000
      -0.000 -0.000  0.995 -0.000 -0.003
      -0.001  0.002 -0.000  0.998 -0.000
       0.000  0.000 -0.003 -0.000  0.992

     Number of occupied Hubbard levels =   12.3667

     HUBBARD ENERGY =    0.1265  (Ry)

     total cpu time spent up to now is       70.5 secs

     total energy              =   -1090.46046544 Ry
     estimated scf accuracy    <       0.00081660 Ry

     total magnetization       =     2.00 Bohr mag/cell
     absolute magnetization    =     7.80 Bohr mag/cell

     iteration #  7     ecut=   120.00 Ry     beta= 0.70
     Davidson diagonalization with overlap

---- Real-time Memory Report at c_bands before calling an iterative solver
           218 MiB given to the printing process from OS
           174 MiB allocation reported by mallinfo(arena+hblkhd)
        708968 MiB available memory on the node where the printing process lives
------------------
     ethr =  7.56E-07,  avg # of iterations =  2.6

     =================== HUBBARD OCCUPATIONS ===================
     ------------------------ ATOM    1 ------------------------
     Tr[ns(  1)] (up, down, total) =   4.92040  0.27158  5.19198
     Atomic magnetic moment for atom   1 =   4.64883
     SPIN  1
     eigenvalues:
       0.968  0.969  0.994  0.994  0.995
     eigenvectors (columns):
       0.585 -0.000 -0.772  0.000 -0.249
      -0.780  0.000 -0.620  0.000  0.089
       0.000  0.530 -0.000 -0.848  0.000
       0.223  0.000 -0.143  0.000  0.964
       0.000  0.848  0.000  0.530 -0.000
     occupation matrix ns (before diag.):
       0.985  0.012 -0.000 -0.004  0.000
       0.012  0.978 -0.000  0.005  0.000
      -0.000 -0.000  0.987 -0.000 -0.011
      -0.004  0.005 -0.000  0.994 -0.000
       0.000  0.000 -0.011 -0.000  0.976
     SPIN  2
     eigenvalues:
       0.027  0.027  0.031  0.093  0.094
     eigenvectors (columns):
       0.846  0.000 -0.041  0.000  0.531
       0.502  0.000 -0.270 -0.000 -0.822
       0.000 -0.821  0.000  0.571 -0.000
      -0.177 -0.000 -0.962 -0.000  0.207
      -0.000  0.571 -0.000  0.821 -0.000
     occupation matrix ns (before diag.):
       0.046 -0.029  0.000  0.008  0.000
      -0.029  0.073 -0.000 -0.010  0.000
       0.000 -0.000  0.048 -0.000  0.031
       0.008 -0.010 -0.000  0.033 -0.000
       0.000  0.000  0.031 -0.000  0.072
     ------------------------ ATOM    2 ------------------------
     Tr[ns(  2)] (up, down, total) =   2.20367  4.97120  7.17488
     Atomic magnetic moment for atom   2 =  -2.76753
     SPIN  1
     eigenvalues:
       0.029  0.090  0.099  0.992  0.993
     eigenvectors (columns):
      -0.118  0.594  0.000  0.796  0.000
       0.200 -0.771 -0.000  0.605  0.000
       0.000  0.000  0.673  0.000 -0.739
       0.973  0.231 -0.000 -0.028 -0.000
       0.000 -0.000  0.739 -0.000  0.673
     occupation matrix ns (before diag.):
       0.661  0.436 -0.000 -0.013  0.000
       0.436  0.417 -0.000 -0.027  0.000
      -0.000 -0.000  0.588  0.000 -0.445
      -0.013 -0.027  0.000  0.033 -0.000
       0.000  0.000 -0.445 -0.000  0.504
     SPIN  2
     eigenvalues:
       0.989  0.991  0.996  0.997  0.998
     eigenvectors (columns):
       0.600 -0.000  0.793  0.000  0.107
      -0.759  0.000  0.607  0.000 -0.237
      -0.000  0.503  0.000 -0.864  0.000
       0.253  0.000 -0.061 -0.000 -0.965
       0.000  0.864 -0.000  0.503  0.000
     occupation matrix ns (before diag.):
       0.994  0.003 -0.000 -0.001  0.000
       0.003  0.992 -0.000  0.002  0.000
      -0.000 -0.000  0.995 -0.000 -0.003
      -0.001  0.002 -0.000  0.998 -0.000
       0.000  0.000 -0.003 -0.000  0.992

     Number of occupied Hubbard levels =   12.3669

     HUBBARD ENERGY =    0.1259  (Ry)

     total cpu time spent up to now is       79.6 secs

     total energy              =   -1090.46068204 Ry
     estimated scf accuracy    <       0.00039325 Ry

     total magnetization       =     2.00 Bohr mag/cell
     absolute magnetization    =     7.80 Bohr mag/cell

     iteration #  8     ecut=   120.00 Ry     beta= 0.70
     Davidson diagonalization with overlap

---- Real-time Memory Report at c_bands before calling an iterative solver
           218 MiB given to the printing process from OS
           175 MiB allocation reported by mallinfo(arena+hblkhd)
        708930 MiB available memory on the node where the printing process lives
------------------
     ethr =  3.64E-07,  avg # of iterations =  3.4

     =================== HUBBARD OCCUPATIONS ===================
     ------------------------ ATOM    1 ------------------------
     Tr[ns(  1)] (up, down, total) =   4.91992  0.27123  5.19114
     Atomic magnetic moment for atom   1 =   4.64869
     SPIN  1
     eigenvalues:
       0.968  0.969  0.994  0.994  0.995
     eigenvectors (columns):
       0.585 -0.000 -0.772  0.000 -0.248
      -0.780  0.000 -0.620  0.000  0.091
       0.000  0.530 -0.000 -0.848  0.000
       0.223  0.000 -0.140  0.000  0.965
       0.000  0.848  0.000  0.530 -0.000
     occupation matrix ns (before diag.):
       0.985  0.012 -0.000 -0.004  0.000
       0.012  0.978 -0.000  0.005  0.000
      -0.000 -0.000  0.987 -0.000 -0.012
      -0.004  0.005 -0.000  0.993 -0.000
       0.000  0.000 -0.012 -0.000  0.976
     SPIN  2
     eigenvalues:
       0.026  0.027  0.031  0.093  0.094
     eigenvectors (columns):
       0.847  0.000 -0.041  0.000  0.531
       0.502  0.000 -0.269 -0.000 -0.822
       0.000 -0.821  0.000  0.571 -0.000
      -0.177 -0.000 -0.962 -0.000  0.207
      -0.000  0.571 -0.000  0.821 -0.000
     occupation matrix ns (before diag.):
       0.046 -0.029  0.000  0.008  0.000
      -0.029  0.072 -0.000 -0.010  0.000
       0.000 -0.000  0.048 -0.000  0.031
       0.008 -0.010 -0.000  0.033 -0.000
       0.000  0.000  0.031 -0.000  0.072
     ------------------------ ATOM    2 ------------------------
     Tr[ns(  2)] (up, down, total) =   2.20280  4.97116  7.17396
     Atomic magnetic moment for atom   2 =  -2.76835
     SPIN  1
     eigenvalues:
       0.029  0.090  0.099  0.993  0.993
     eigenvectors (columns):
      -0.127  0.606  0.000  0.785  0.000
       0.195 -0.761 -0.000  0.619  0.000
       0.000 -0.000  0.700  0.000 -0.714
       0.973  0.232 -0.000 -0.022 -0.000
       0.000 -0.000  0.714 -0.000  0.700
     occupation matrix ns (before diag.):
       0.646  0.440 -0.000 -0.008  0.000
       0.440  0.433 -0.000 -0.024  0.000
      -0.000 -0.000  0.554  0.000 -0.447
      -0.008 -0.024  0.000  0.033 -0.000
       0.000  0.000 -0.447 -0.000  0.537
     SPIN  2
     eigenvalues:
       0.989  0.991  0.996  0.997  0.998
     eigenvectors (columns):
       0.588 -0.000  0.802  0.000  0.105
      -0.768  0.000  0.594  0.000 -0.240
      -0.000  0.482  0.000 -0.876  0.000
       0.254  0.000 -0.061 -0.000 -0.965
       0.000  0.876 -0.000  0.482  0.000
     occupation matrix ns (before diag.):
       0.994  0.003 -0.000 -0.001  0.000
       0.003  0.992 -0.000  0.002  0.000
      -0.000 -0.000  0.995 -0.000 -0.003
      -0.001  0.002 -0.000  0.998 -0.000
       0.000  0.000 -0.003 -0.000  0.992

     Number of occupied Hubbard levels =   12.3651

     HUBBARD ENERGY =    0.1259  (Ry)

     total cpu time spent up to now is       90.3 secs

     total energy              =   -1090.46163218 Ry
     estimated scf accuracy    <       0.00014902 Ry

     total magnetization       =     2.00 Bohr mag/cell
     absolute magnetization    =     7.80 Bohr mag/cell

     iteration #  9     ecut=   120.00 Ry     beta= 0.70
     Davidson diagonalization with overlap

---- Real-time Memory Report at c_bands before calling an iterative solver
           219 MiB given to the printing process from OS
           175 MiB allocation reported by mallinfo(arena+hblkhd)
        708891 MiB available memory on the node where the printing process lives
------------------
     ethr =  1.38E-07,  avg # of iterations =  2.8

     =================== HUBBARD OCCUPATIONS ===================
     ------------------------ ATOM    1 ------------------------
     Tr[ns(  1)] (up, down, total) =   4.92003  0.27115  5.19118
     Atomic magnetic moment for atom   1 =   4.64889
     SPIN  1
     eigenvalues:
       0.968  0.969  0.994  0.994  0.995
     eigenvectors (columns):
       0.585 -0.000 -0.772  0.000 -0.250
      -0.780  0.000 -0.620  0.000  0.089
       0.000  0.530 -0.000 -0.848  0.000
       0.224  0.000 -0.142  0.000  0.964
       0.000  0.848  0.000  0.530 -0.000
     occupation matrix ns (before diag.):
       0.985  0.012 -0.000 -0.004  0.000
       0.012  0.978 -0.000  0.005  0.000
      -0.000 -0.000  0.987 -0.000 -0.011
      -0.004  0.005 -0.000  0.993 -0.000
       0.000  0.000 -0.011 -0.000  0.976
     SPIN  2
     eigenvalues:
       0.026  0.027  0.031  0.093  0.094
     eigenvectors (columns):
       0.847  0.000 -0.041  0.000  0.531
       0.502  0.000 -0.269 -0.000 -0.822
       0.000 -0.821  0.000  0.571 -0.000
      -0.177 -0.000 -0.962 -0.000  0.207
      -0.000  0.571 -0.000  0.821 -0.000
     occupation matrix ns (before diag.):
       0.046 -0.029  0.000  0.008  0.000
      -0.029  0.072 -0.000 -0.010  0.000
       0.000 -0.000  0.048 -0.000  0.031
       0.008 -0.010 -0.000  0.033 -0.000
       0.000  0.000  0.031 -0.000  0.071
     ------------------------ ATOM    2 ------------------------
     Tr[ns(  2)] (up, down, total) =   2.20188  4.97126  7.17314
     Atomic magnetic moment for atom   2 =  -2.76938
     SPIN  1
     eigenvalues:
       0.029  0.090  0.098  0.993  0.993
     eigenvectors (columns):
      -0.135  0.612 -0.000  0.779  0.000
       0.190 -0.755  0.000  0.627  0.000
       0.000  0.000  0.716  0.000 -0.698
       0.972  0.233 -0.000 -0.014 -0.000
       0.000  0.000  0.698 -0.000  0.716
     occupation matrix ns (before diag.):
       0.637  0.442 -0.000 -0.002  0.000
       0.442  0.443 -0.000 -0.019  0.000
      -0.000 -0.000  0.534  0.000 -0.447
      -0.002 -0.019  0.000  0.032 -0.000
       0.000  0.000 -0.447 -0.000  0.557
     SPIN  2
     eigenvalues:
       0.989  0.991  0.996  0.997  0.998
     eigenvectors (columns):
       0.582 -0.000 -0.806  0.000 -0.106
      -0.773  0.000 -0.589  0.000  0.238
       0.000  0.472 -0.000 -0.882 -0.000
       0.255  0.000  0.056 -0.000  0.965
       0.000  0.882  0.000  0.472 -0.000
     occupation matrix ns (before diag.):
       0.994  0.003 -0.000 -0.001  0.000
       0.003  0.992 -0.000  0.002  0.000
      -0.000 -0.000  0.995 -0.000 -0.003
      -0.001  0.002 -0.000  0.998 -0.000
       0.000  0.000 -0.003 -0.000  0.992

     Number of occupied Hubbard levels =   12.3643

     HUBBARD ENERGY =    0.1256  (Ry)

     total cpu time spent up to now is      100.3 secs

     total energy              =   -1090.46205302 Ry
     estimated scf accuracy    <       0.00007725 Ry

     total magnetization       =     2.00 Bohr mag/cell
     absolute magnetization    =     7.80 Bohr mag/cell

     iteration # 10     ecut=   120.00 Ry     beta= 0.70
     Davidson diagonalization with overlap

---- Real-time Memory Report at c_bands before calling an iterative solver
           219 MiB given to the printing process from OS
           175 MiB allocation reported by mallinfo(arena+hblkhd)
        708851 MiB available memory on the node where the printing process lives
------------------
     ethr =  7.15E-08,  avg # of iterations =  2.9

     =================== HUBBARD OCCUPATIONS ===================
     ------------------------ ATOM    1 ------------------------
     Tr[ns(  1)] (up, down, total) =   4.92014  0.27117  5.19131
     Atomic magnetic moment for atom   1 =   4.64897
     SPIN  1
     eigenvalues:
       0.968  0.969  0.994  0.994  0.995
     eigenvectors (columns):
       0.585 -0.000 -0.772  0.000 -0.249
      -0.780  0.000 -0.620  0.000  0.090
       0.000  0.530 -0.000 -0.848  0.000
       0.224  0.000 -0.141  0.000  0.964
       0.000  0.848  0.000  0.530 -0.000
     occupation matrix ns (before diag.):
       0.985  0.012 -0.000 -0.004  0.000
       0.012  0.978 -0.000  0.005  0.000
      -0.000 -0.000  0.987 -0.000 -0.011
      -0.004  0.005 -0.000  0.993 -0.000
       0.000  0.000 -0.011 -0.000  0.976
     SPIN  2
     eigenvalues:
       0.026  0.027  0.031  0.093  0.094
     eigenvectors (columns):
       0.847  0.000 -0.041  0.000  0.531
       0.502  0.000 -0.269 -0.000 -0.822
       0.000 -0.821  0.000  0.571 -0.000
      -0.176 -0.000 -0.962 -0.000  0.207
      -0.000  0.571 -0.000  0.821 -0.000
     occupation matrix ns (before diag.):
       0.046 -0.029  0.000  0.008  0.000
      -0.029  0.072 -0.000 -0.010  0.000
       0.000 -0.000  0.048 -0.000  0.031
       0.008 -0.010 -0.000  0.033 -0.000
       0.000  0.000  0.031 -0.000  0.071
     ------------------------ ATOM    2 ------------------------
     Tr[ns(  2)] (up, down, total) =   2.20114  4.97128  7.17241
     Atomic magnetic moment for atom   2 =  -2.77014
     SPIN  1
     eigenvalues:
       0.028  0.090  0.097  0.993  0.993
     eigenvectors (columns):
      -0.145  0.613  0.000  0.776  0.000
       0.184 -0.754 -0.000  0.630  0.000
       0.000 -0.000  0.724  0.000 -0.690
       0.972  0.234 -0.000 -0.003 -0.000
       0.000 -0.000  0.690 -0.000  0.724
     occupation matrix ns (before diag.):
       0.633  0.443 -0.000  0.006  0.000
       0.443  0.447 -0.000 -0.013  0.000
      -0.000 -0.000  0.523  0.000 -0.447
       0.006 -0.013  0.000  0.032 -0.000
       0.000  0.000 -0.447 -0.000  0.566
     SPIN  2
     eigenvalues:
       0.989  0.991  0.996  0.997  0.998
     eigenvectors (columns):
       0.581 -0.000 -0.806  0.000 -0.113
      -0.773  0.000 -0.589  0.000  0.234
       0.000  0.468 -0.000 -0.884 -0.000
       0.255  0.000  0.048 -0.000  0.966
       0.000  0.884  0.000  0.468 -0.000
     occupation matrix ns (before diag.):
       0.994  0.003 -0.000 -0.001  0.000
       0.003  0.992 -0.000  0.002  0.000
      -0.000 -0.000  0.995 -0.000 -0.003
      -0.001  0.002 -0.000  0.998 -0.000
       0.000  0.000 -0.003 -0.000  0.992

     Number of occupied Hubbard levels =   12.3637

     HUBBARD ENERGY =    0.1252  (Ry)

     total cpu time spent up to now is      109.8 secs

     total energy              =   -1090.46215129 Ry
     estimated scf accuracy    <       0.00006307 Ry

     total magnetization       =     2.00 Bohr mag/cell
     absolute magnetization    =     7.80 Bohr mag/cell

     iteration # 11     ecut=   120.00 Ry     beta= 0.70
     Davidson diagonalization with overlap

---- Real-time Memory Report at c_bands before calling an iterative solver
           219 MiB given to the printing process from OS
           176 MiB allocation reported by mallinfo(arena+hblkhd)
        708810 MiB available memory on the node where the printing process lives
------------------
     ethr =  5.84E-08,  avg # of iterations =  3.0

     =================== HUBBARD OCCUPATIONS ===================
     ------------------------ ATOM    1 ------------------------
     Tr[ns(  1)] (up, down, total) =   4.92024  0.27126  5.19151
     Atomic magnetic moment for atom   1 =   4.64898
     SPIN  1
     eigenvalues:
       0.968  0.969  0.994  0.994  0.995
     eigenvectors (columns):
      -0.585 -0.000 -0.773  0.000  0.247
       0.780  0.000 -0.619  0.000 -0.092
      -0.000  0.530 -0.000 -0.848  0.000
      -0.224  0.000 -0.139  0.000 -0.965
      -0.000  0.848  0.000  0.530  0.000
     occupation matrix ns (before diag.):
       0.985  0.012 -0.000 -0.004  0.000
       0.012  0.978 -0.000  0.005  0.000
      -0.000 -0.000  0.987 -0.000 -0.011
      -0.004  0.005 -0.000  0.993 -0.000
       0.000  0.000 -0.011 -0.000  0.976
     SPIN  2
     eigenvalues:
       0.027  0.027  0.031  0.093  0.094
     eigenvectors (columns):
       0.847  0.000 -0.040  0.000  0.531
       0.503  0.000 -0.269 -0.000 -0.822
       0.000 -0.821  0.000  0.571 -0.000
      -0.176 -0.000 -0.962 -0.000  0.207
      -0.000  0.571 -0.000  0.821 -0.000
     occupation matrix ns (before diag.):
       0.046 -0.029  0.000  0.008  0.000
      -0.029  0.072 -0.000 -0.010  0.000
       0.000 -0.000  0.048 -0.000  0.031
       0.008 -0.010 -0.000  0.033 -0.000
       0.000  0.000  0.031 -0.000  0.071
     ------------------------ ATOM    2 ------------------------
     Tr[ns(  2)] (up, down, total) =   2.20051  4.97128  7.17179
     Atomic magnetic moment for atom   2 =  -2.77078
     SPIN  1
     eigenvalues:
       0.028  0.091  0.096  0.993  0.993
     eigenvectors (columns):
      -0.159  0.614  0.000  0.773  0.000
       0.175 -0.753 -0.000  0.634  0.000
       0.000 -0.000  0.732  0.000 -0.681
       0.972  0.236 -0.000  0.013  0.000
       0.000 -0.000  0.681 -0.000  0.732
     occupation matrix ns (before diag.):
       0.628  0.444 -0.000  0.018  0.000
       0.444  0.452 -0.000 -0.003  0.000
      -0.000 -0.000  0.512  0.000 -0.447
       0.018 -0.003  0.000  0.032 -0.000
       0.000  0.000 -0.447 -0.000  0.577
     SPIN  2
     eigenvalues:
       0.989  0.991  0.996  0.997  0.998
     eigenvectors (columns):
       0.580 -0.000 -0.805  0.000 -0.123
      -0.774  0.000 -0.592  0.000  0.227
       0.000  0.465 -0.000 -0.885 -0.000
       0.255  0.000  0.037 -0.000  0.966
       0.000  0.885  0.000  0.465 -0.000
     occupation matrix ns (before diag.):
       0.994  0.003 -0.000 -0.001  0.000
       0.003  0.992 -0.000  0.002  0.000
      -0.000 -0.000  0.995 -0.000 -0.003
      -0.001  0.002 -0.000  0.998 -0.000
       0.000  0.000 -0.003 -0.000  0.992

     Number of occupied Hubbard levels =   12.3633

     HUBBARD ENERGY =    0.1245  (Ry)

     total cpu time spent up to now is      119.7 secs

     total energy              =   -1090.46151661 Ry
     estimated scf accuracy    <       0.00005290 Ry

     total magnetization       =     2.00 Bohr mag/cell
     absolute magnetization    =     7.80 Bohr mag/cell

     iteration # 12     ecut=   120.00 Ry     beta= 0.70
     Davidson diagonalization with overlap

---- Real-time Memory Report at c_bands before calling an iterative solver
           219 MiB given to the printing process from OS
           176 MiB allocation reported by mallinfo(arena+hblkhd)
        708809 MiB available memory on the node where the printing process lives
------------------
     ethr =  4.90E-08,  avg # of iterations =  4.0

     =================== HUBBARD OCCUPATIONS ===================
     ------------------------ ATOM    1 ------------------------
     Tr[ns(  1)] (up, down, total) =   4.92044  0.27146  5.19190
     Atomic magnetic moment for atom   1 =   4.64898
     SPIN  1
     eigenvalues:
       0.968  0.969  0.994  0.994  0.995
     eigenvectors (columns):
       0.584 -0.000 -0.774  0.000 -0.243
      -0.780  0.000 -0.619  0.000  0.095
       0.000  0.531 -0.000 -0.848  0.000
       0.224  0.000 -0.134  0.000  0.965
       0.000  0.848  0.000  0.531 -0.000
     occupation matrix ns (before diag.):
       0.985  0.012 -0.000 -0.004  0.000
       0.012  0.978 -0.000  0.005  0.000
      -0.000 -0.000  0.987 -0.000 -0.011
      -0.004  0.005 -0.000  0.994 -0.000
       0.000  0.000 -0.011 -0.000  0.976
     SPIN  2
     eigenvalues:
       0.027  0.027  0.031  0.093  0.094
     eigenvectors (columns):
       0.847  0.000 -0.039  0.000  0.531
       0.503  0.000 -0.268 -0.000 -0.822
       0.000 -0.821  0.000  0.571 -0.000
      -0.174 -0.000 -0.963 -0.000  0.207
      -0.000  0.571 -0.000  0.821 -0.000
     occupation matrix ns (before diag.):
       0.046 -0.029  0.000  0.008  0.000
      -0.029  0.073 -0.000 -0.010  0.000
       0.000 -0.000  0.048 -0.000  0.031
       0.008 -0.010 -0.000  0.033 -0.000
       0.000  0.000  0.031 -0.000  0.072
     ------------------------ ATOM    2 ------------------------
     Tr[ns(  2)] (up, down, total) =   2.19951  4.97130  7.17081
     Atomic magnetic moment for atom   2 =  -2.77179
     SPIN  1
     eigenvalues:
       0.028  0.091  0.095  0.993  0.993
     eigenvectors (columns):
      -0.193  0.613  0.000 -0.000  0.766
       0.151 -0.753 -0.000 -0.000  0.640
       0.000 -0.000  0.746 -0.666 -0.000
       0.969  0.239 -0.000 -0.000  0.053
       0.000 -0.000  0.666  0.746  0.000
     occupation matrix ns (before diag.):
       0.618  0.444 -0.000  0.049  0.000
       0.444  0.459 -0.000  0.022  0.000
      -0.000 -0.000  0.493  0.000 -0.446
       0.049  0.022  0.000  0.034 -0.000
       0.000  0.000 -0.446 -0.000  0.594
     SPIN  2
     eigenvalues:
       0.989  0.990  0.996  0.997  0.998
     eigenvectors (columns):
       0.582 -0.000 -0.800  0.000 -0.150
      -0.772  0.000 -0.601  0.000  0.208
       0.000  0.461 -0.000 -0.887 -0.000
       0.256  0.000  0.005 -0.000  0.967
       0.000  0.887  0.000  0.461 -0.000
     occupation matrix ns (before diag.):
       0.994  0.003 -0.000 -0.001  0.000
       0.003  0.992 -0.000  0.002  0.000
      -0.000 -0.000  0.995 -0.000 -0.003
      -0.001  0.002 -0.000  0.998 -0.000
       0.000  0.000 -0.003 -0.000  0.992

     Number of occupied Hubbard levels =   12.3627

     HUBBARD ENERGY =    0.1252  (Ry)

     total cpu time spent up to now is      131.5 secs

     total energy              =   -1090.46248960 Ry
     estimated scf accuracy    <       0.00003602 Ry

     total magnetization       =     2.00 Bohr mag/cell
     absolute magnetization    =     7.80 Bohr mag/cell

     iteration # 13     ecut=   120.00 Ry     beta= 0.70
     Davidson diagonalization with overlap

---- Real-time Memory Report at c_bands before calling an iterative solver
           219 MiB given to the printing process from OS
           176 MiB allocation reported by mallinfo(arena+hblkhd)
        708802 MiB available memory on the node where the printing process lives
------------------
     ethr =  3.34E-08,  avg # of iterations =  3.4

     =================== HUBBARD OCCUPATIONS ===================
     ------------------------ ATOM    1 ------------------------
     Tr[ns(  1)] (up, down, total) =   4.92041  0.27138  5.19178
     Atomic magnetic moment for atom   1 =   4.64903
     SPIN  1
     eigenvalues:
       0.968  0.969  0.994  0.994  0.995
     eigenvectors (columns):
       0.584 -0.000 -0.775  0.000 -0.242
      -0.780  0.000 -0.618  0.000  0.096
       0.000  0.531 -0.000 -0.848  0.000
       0.224  0.000 -0.132  0.000  0.966
       0.000  0.848  0.000  0.531 -0.000
     occupation matrix ns (before diag.):
       0.985  0.012 -0.000 -0.004  0.000
       0.012  0.978 -0.000  0.005  0.000
      -0.000 -0.000  0.987 -0.000 -0.011
      -0.004  0.005 -0.000  0.994 -0.000
       0.000  0.000 -0.011 -0.000  0.976
     SPIN  2
     eigenvalues:
       0.027  0.027  0.031  0.093  0.094
     eigenvectors (columns):
       0.847  0.000 -0.038  0.000  0.531
       0.503  0.000 -0.267 -0.000 -0.822
       0.000 -0.821  0.000  0.571 -0.000
      -0.173 -0.000 -0.963 -0.000  0.207
      -0.000  0.571 -0.000  0.821 -0.000
     occupation matrix ns (before diag.):
       0.046 -0.029  0.000  0.008  0.000
      -0.029  0.073 -0.000 -0.010  0.000
       0.000 -0.000  0.048 -0.000  0.031
       0.008 -0.010 -0.000  0.033 -0.000
       0.000  0.000  0.031 -0.000  0.072
     ------------------------ ATOM    2 ------------------------
     Tr[ns(  2)] (up, down, total) =   2.19927  4.97134  7.17061
     Atomic magnetic moment for atom   2 =  -2.77207
     SPIN  1
     eigenvalues:
       0.028  0.092  0.094  0.993  0.993
     eigenvectors (columns):
      -0.215  0.612  0.000 -0.000  0.761
       0.135 -0.753 -0.000 -0.000  0.644
       0.000 -0.000  0.751 -0.661 -0.000
       0.967  0.241 -0.000 -0.000  0.080
       0.000 -0.000  0.661  0.751  0.000
     occupation matrix ns (before diag.):
       0.610  0.443 -0.000  0.068  0.000
       0.443  0.464 -0.000  0.038  0.000
      -0.000 -0.000  0.486  0.000 -0.446
       0.068  0.038  0.000  0.038 -0.000
       0.000  0.000 -0.446 -0.000  0.600
     SPIN  2
     eigenvalues:
       0.990  0.990  0.996  0.997  0.998
     eigenvectors (columns):
       0.582 -0.000 -0.795  0.000 -0.168
      -0.771  0.000 -0.606  0.000  0.195
       0.000  0.460 -0.000 -0.888 -0.000
       0.257  0.000 -0.016 -0.000  0.966
       0.000  0.888  0.000  0.460 -0.000
     occupation matrix ns (before diag.):
       0.994  0.003 -0.000 -0.001  0.000
       0.003  0.992 -0.000  0.002  0.000
      -0.000 -0.000  0.995 -0.000 -0.003
      -0.001  0.002 -0.000  0.998 -0.000
       0.000  0.000 -0.003 -0.000  0.992

     Number of occupied Hubbard levels =   12.3624

     HUBBARD ENERGY =    0.1232  (Ry)

     total cpu time spent up to now is      142.3 secs

     total energy              =   -1090.46197593 Ry
     estimated scf accuracy    <       0.00002375 Ry

     total magnetization       =     2.00 Bohr mag/cell
     absolute magnetization    =     7.80 Bohr mag/cell

     iteration # 14     ecut=   120.00 Ry     beta= 0.70
     Davidson diagonalization with overlap

---- Real-time Memory Report at c_bands before calling an iterative solver
           220 MiB given to the printing process from OS
           176 MiB allocation reported by mallinfo(arena+hblkhd)
        712929 MiB available memory on the node where the printing process lives
------------------
     ethr =  2.20E-08,  avg # of iterations =  4.3

     =================== HUBBARD OCCUPATIONS ===================
     ------------------------ ATOM    1 ------------------------
     Tr[ns(  1)] (up, down, total) =   4.92034  0.27125  5.19159
     Atomic magnetic moment for atom   1 =   4.64909
     SPIN  1
     eigenvalues:
       0.968  0.969  0.994  0.994  0.995
     eigenvectors (columns):
       0.584 -0.000  0.776  0.000  0.238
      -0.780  0.000  0.618  0.000 -0.100
       0.000  0.531  0.000 -0.847  0.000
       0.224  0.000  0.127  0.000 -0.966
       0.000  0.847 -0.000  0.531 -0.000
     occupation matrix ns (before diag.):
       0.985  0.012 -0.000 -0.004  0.000
       0.012  0.978 -0.000  0.005  0.000
      -0.000 -0.000  0.987 -0.000 -0.011
      -0.004  0.005 -0.000  0.994 -0.000
       0.000  0.000 -0.011 -0.000  0.976
     SPIN  2
     eigenvalues:
       0.027  0.027  0.031  0.093  0.094
     eigenvectors (columns):
       0.847  0.000 -0.037  0.000  0.531
       0.504  0.000 -0.267 -0.000 -0.822
       0.000 -0.821  0.000  0.571 -0.000
      -0.172 -0.000 -0.963 -0.000  0.207
      -0.000  0.571 -0.000  0.821 -0.000
     occupation matrix ns (before diag.):
       0.046 -0.029  0.000  0.008  0.000
      -0.029  0.072 -0.000 -0.010  0.000
       0.000 -0.000  0.048 -0.000  0.031
       0.008 -0.010 -0.000  0.033 -0.000
       0.000  0.000  0.031 -0.000  0.071
     ------------------------ ATOM    2 ------------------------
     Tr[ns(  2)] (up, down, total) =   2.19853  4.97138  7.16991
     Atomic magnetic moment for atom   2 =  -2.77284
     SPIN  1
     eigenvalues:
       0.028  0.093  0.093  0.992  0.993
     eigenvectors (columns):
      -0.250  0.612  0.000 -0.000  0.750
       0.110 -0.752 -0.000 -0.000  0.650
       0.000 -0.000  0.757 -0.653 -0.000
       0.962  0.245  0.000 -0.000  0.121
       0.000 -0.000  0.653  0.757  0.000
     occupation matrix ns (before diag.):
       0.595  0.441 -0.000  0.097  0.000
       0.441  0.472 -0.000  0.064  0.000
      -0.000 -0.000  0.476  0.000 -0.445
       0.097  0.064  0.000  0.046 -0.000
       0.000  0.000 -0.445 -0.000  0.609
     SPIN  2
     eigenvalues:
       0.990  0.990  0.996  0.997  0.998
     eigenvectors (columns):
       0.584 -0.000 -0.787  0.000 -0.198
      -0.769  0.000 -0.615  0.000  0.174
       0.000  0.459 -0.000 -0.888 -0.000
       0.258  0.000 -0.051  0.000  0.965
       0.000  0.888  0.000  0.459 -0.000
     occupation matrix ns (before diag.):
       0.994  0.003 -0.000 -0.001  0.000
       0.003  0.992 -0.000  0.002  0.000
      -0.000 -0.000  0.995 -0.000 -0.003
      -0.001  0.002 -0.000  0.998 -0.000
       0.000  0.000 -0.003 -0.000  0.992

     Number of occupied Hubbard levels =   12.3615

     HUBBARD ENERGY =    0.1263  (Ry)

     total cpu time spent up to now is      154.7 secs

     total energy              =   -1090.46313177 Ry
     estimated scf accuracy    <       0.00002163 Ry

     total magnetization       =     2.00 Bohr mag/cell
     absolute magnetization    =     7.80 Bohr mag/cell

     iteration # 15     ecut=   120.00 Ry     beta= 0.70
     Davidson diagonalization with overlap

---- Real-time Memory Report at c_bands before calling an iterative solver
           220 MiB given to the printing process from OS
           176 MiB allocation reported by mallinfo(arena+hblkhd)
        712929 MiB available memory on the node where the printing process lives
------------------
     ethr =  2.00E-08,  avg # of iterations =  2.2

     =================== HUBBARD OCCUPATIONS ===================
     ------------------------ ATOM    1 ------------------------
     Tr[ns(  1)] (up, down, total) =   4.92026  0.27117  5.19144
     Atomic magnetic moment for atom   1 =   4.64909
     SPIN  1
     eigenvalues:
       0.968  0.969  0.994  0.994  0.995
     eigenvectors (columns):
       0.584 -0.000 -0.776  0.000 -0.239
      -0.780  0.000 -0.618  0.000  0.099
       0.000  0.531 -0.000 -0.848  0.000
       0.224  0.000 -0.129  0.000  0.966
       0.000  0.848  0.000  0.531 -0.000
     occupation matrix ns (before diag.):
       0.985  0.012 -0.000 -0.004  0.000
       0.012  0.978 -0.000  0.005  0.000
      -0.000 -0.000  0.987 -0.000 -0.011
      -0.004  0.005 -0.000  0.994 -0.000
       0.000  0.000 -0.011 -0.000  0.976
     SPIN  2
     eigenvalues:
       0.027  0.027  0.031  0.093  0.094
     eigenvectors (columns):
       0.847  0.000 -0.037  0.000  0.531
       0.504  0.000 -0.267 -0.000 -0.822
       0.000 -0.821  0.000  0.571 -0.000
      -0.172 -0.000 -0.963 -0.000  0.207
      -0.000  0.571 -0.000  0.821 -0.000
     occupation matrix ns (before diag.):
       0.046 -0.029  0.000  0.008  0.000
      -0.029  0.072 -0.000 -0.010  0.000
       0.000 -0.000  0.048 -0.000  0.031
       0.008 -0.010 -0.000  0.033 -0.000
       0.000  0.000  0.031 -0.000  0.071
     ------------------------ ATOM    2 ------------------------
     Tr[ns(  2)] (up, down, total) =   2.19910  4.97139  7.17049
     Atomic magnetic moment for atom   2 =  -2.77229
     SPIN  1
     eigenvalues:
       0.028  0.092  0.093  0.992  0.993
     eigenvectors (columns):
      -0.249  0.614  0.000 -0.000  0.749
       0.111 -0.750 -0.000 -0.000  0.652
       0.000 -0.000  0.753 -0.658 -0.000
       0.962  0.246  0.000 -0.000  0.119
       0.000 -0.000  0.658  0.753  0.000
     occupation matrix ns (before diag.):
       0.593  0.441 -0.000  0.095  0.000
       0.441  0.475 -0.000  0.063  0.000
      -0.000 -0.000  0.482  0.000 -0.445
       0.095  0.063  0.000  0.046 -0.000
       0.000  0.000 -0.445 -0.000  0.604
     SPIN  2
     eigenvalues:
       0.990  0.990  0.997  0.997  0.998
     eigenvectors (columns):
       0.583 -0.000 -0.788  0.000 -0.197
      -0.770  0.000 -0.613  0.000  0.175
       0.000  0.461 -0.000 -0.888 -0.000
       0.258  0.000 -0.050  0.000  0.965
       0.000  0.888  0.000  0.461 -0.000
     occupation matrix ns (before diag.):
       0.994  0.003 -0.000 -0.001  0.000
       0.003  0.992 -0.000  0.002  0.000
      -0.000 -0.000  0.995 -0.000 -0.003
      -0.001  0.002 -0.000  0.998 -0.000
       0.000  0.000 -0.003 -0.000  0.992

     Number of occupied Hubbard levels =   12.3619

     HUBBARD ENERGY =    0.1255  (Ry)

     total cpu time spent up to now is      163.6 secs

     total energy              =   -1090.46290635 Ry
     estimated scf accuracy    <       0.00001493 Ry

     total magnetization       =     2.00 Bohr mag/cell
     absolute magnetization    =     7.80 Bohr mag/cell

     iteration # 16     ecut=   120.00 Ry     beta= 0.70
     Davidson diagonalization with overlap

---- Real-time Memory Report at c_bands before calling an iterative solver
           220 MiB given to the printing process from OS
           176 MiB allocation reported by mallinfo(arena+hblkhd)
        712929 MiB available memory on the node where the printing process lives
------------------
     ethr =  1.38E-08,  avg # of iterations =  3.9

     =================== HUBBARD OCCUPATIONS ===================
     ------------------------ ATOM    1 ------------------------
     Tr[ns(  1)] (up, down, total) =   4.92029  0.27115  5.19144
     Atomic magnetic moment for atom   1 =   4.64914
     SPIN  1
     eigenvalues:
       0.968  0.969  0.994  0.994  0.995
     eigenvectors (columns):
       0.584 -0.000 -0.776  0.000 -0.238
      -0.780  0.000 -0.618  0.000  0.100
       0.000  0.531 -0.000 -0.848  0.000
       0.224  0.000 -0.127  0.000  0.966
       0.000  0.848  0.000  0.531 -0.000
     occupation matrix ns (before diag.):
       0.985  0.012 -0.000 -0.004  0.000
       0.012  0.978 -0.000  0.005  0.000
      -0.000 -0.000  0.987 -0.000 -0.011
      -0.004  0.005 -0.000  0.994 -0.000
       0.000  0.000 -0.011 -0.000  0.976
     SPIN  2
     eigenvalues:
       0.026  0.027  0.031  0.093  0.094
     eigenvectors (columns):
       0.847  0.000 -0.037  0.000  0.531
       0.504  0.000 -0.266 -0.000 -0.822
       0.000 -0.821  0.000  0.571 -0.000
      -0.171 -0.000 -0.963 -0.000  0.207
      -0.000  0.571 -0.000  0.821 -0.000
     occupation matrix ns (before diag.):
       0.046 -0.029  0.000  0.008  0.000
      -0.029  0.072 -0.000 -0.010  0.000
       0.000 -0.000  0.048 -0.000  0.031
       0.008 -0.010 -0.000  0.033 -0.000
       0.000  0.000  0.031 -0.000  0.071
     ------------------------ ATOM    2 ------------------------
     Tr[ns(  2)] (up, down, total) =   2.19892  4.97143  7.17034
     Atomic magnetic moment for atom   2 =  -2.77251
     SPIN  1
     eigenvalues:
       0.028  0.093  0.093  0.993  0.993
     eigenvectors (columns):
      -0.269  0.618 -0.000 -0.000  0.739
       0.098 -0.745  0.000 -0.000  0.660
       0.000  0.000  0.754 -0.657 -0.000
       0.958  0.249 -0.000 -0.000  0.140
       0.000  0.000  0.657  0.754  0.000
     occupation matrix ns (before diag.):
       0.579  0.440 -0.000  0.110  0.000
       0.440  0.484 -0.000  0.077  0.000
      -0.000 -0.000  0.481  0.000 -0.446
       0.110  0.077  0.000  0.051 -0.000
       0.000  0.000 -0.446 -0.000  0.604
     SPIN  2
     eigenvalues:
       0.990  0.990  0.997  0.997  0.998
     eigenvectors (columns):
       0.582 -0.000 -0.785  0.000 -0.212
      -0.771  0.000 -0.616  0.000  0.163
       0.000  0.461 -0.000 -0.887 -0.000
       0.259  0.000 -0.068  0.000  0.964
       0.000  0.887  0.000  0.461 -0.000
     occupation matrix ns (before diag.):
       0.994  0.003 -0.000 -0.001  0.000
       0.003  0.992 -0.000  0.002  0.000
      -0.000 -0.000  0.995 -0.000 -0.003
      -0.001  0.002 -0.000  0.998 -0.000
       0.000  0.000 -0.003 -0.000  0.992

     Number of occupied Hubbard levels =   12.3618

     HUBBARD ENERGY =    0.1254  (Ry)

     total cpu time spent up to now is      175.0 secs

     total energy              =   -1090.46310300 Ry
     estimated scf accuracy    <       0.00001036 Ry

     total magnetization       =     2.00 Bohr mag/cell
     absolute magnetization    =     7.80 Bohr mag/cell

     iteration # 17     ecut=   120.00 Ry     beta= 0.70
     Davidson diagonalization with overlap

---- Real-time Memory Report at c_bands before calling an iterative solver
           220 MiB given to the printing process from OS
           176 MiB allocation reported by mallinfo(arena+hblkhd)
        712930 MiB available memory on the node where the printing process lives
------------------
     ethr =  9.60E-09,  avg # of iterations =  4.0

     =================== HUBBARD OCCUPATIONS ===================
     ------------------------ ATOM    1 ------------------------
     Tr[ns(  1)] (up, down, total) =   4.92031  0.27117  5.19148
     Atomic magnetic moment for atom   1 =   4.64913
     SPIN  1
     eigenvalues:
       0.968  0.969  0.994  0.994  0.995
     eigenvectors (columns):
      -0.584 -0.000 -0.776  0.000  0.236
       0.780  0.000 -0.618  0.000 -0.101
      -0.000  0.531 -0.000 -0.848  0.000
      -0.224  0.000 -0.125  0.000 -0.966
      -0.000  0.848  0.000  0.531  0.000
     occupation matrix ns (before diag.):
       0.985  0.012 -0.000 -0.004  0.000
       0.012  0.978 -0.000  0.005  0.000
      -0.000 -0.000  0.987 -0.000 -0.011
      -0.004  0.005 -0.000  0.994 -0.000
       0.000  0.000 -0.011 -0.000  0.976
     SPIN  2
     eigenvalues:
       0.027  0.027  0.031  0.093  0.094
     eigenvectors (columns):
       0.847  0.000 -0.036  0.000  0.531
       0.504  0.000 -0.266 -0.000 -0.822
       0.000 -0.821  0.000  0.571 -0.000
      -0.171 -0.000 -0.963 -0.000  0.207
      -0.000  0.571 -0.000  0.821 -0.000
     occupation matrix ns (before diag.):
       0.046 -0.029  0.000  0.008  0.000
      -0.029  0.072 -0.000 -0.010  0.000
       0.000 -0.000  0.048 -0.000  0.031
       0.008 -0.010 -0.000  0.033 -0.000
       0.000  0.000  0.031 -0.000  0.071
     ------------------------ ATOM    2 ------------------------
     Tr[ns(  2)] (up, down, total) =   2.19897  4.97144  7.17041
     Atomic magnetic moment for atom   2 =  -2.77247
     SPIN  1
     eigenvalues:
       0.028  0.093  0.093  0.993  0.993
     eigenvectors (columns):
      -0.283  0.623 -0.000 -0.000  0.729
       0.088 -0.740  0.000 -0.000  0.667
       0.000  0.000  0.751 -0.660 -0.000
       0.955  0.253 -0.000 -0.000  0.155
       0.000  0.000  0.660  0.751  0.000
     occupation matrix ns (before diag.):
       0.566  0.439 -0.000  0.119  0.000
       0.439  0.492 -0.000  0.088  0.000
      -0.000 -0.000  0.485  0.000 -0.446
       0.119  0.088  0.000  0.055 -0.000
       0.000  0.000 -0.446 -0.000  0.601
[...]
     1.0000   1.0000   1.0000   1.0000   1.0000   1.0000   1.0000   1.0000
     1.0000   1.0000   1.0000   1.0000   1.0000   1.0000   1.0000   1.0000
     1.0000   1.0000   1.0000   1.0000   1.0000   1.0000   1.0000   1.0000
     1.0000   1.0000   1.0000   1.0000   1.0000   1.0000   1.0000   1.0000
     1.0000   1.0000   1.0000   1.0000   1.0000   0.0000   0.0000   0.0000
     0.0000   0.0000   0.0000   0.0000   0.0000   0.0000   0.0000   0.0000
     0.0000

          k = 0.4169 0.2045 0.0826 ( 19018 PWs)   bands (ev):

   -84.8566 -63.9136 -63.8976 -63.8718 -48.8720 -48.2739 -47.9156 -32.6852
   -32.6712 -32.6575 -28.3632 -28.3169 -28.2842 -28.2152 -28.1901 -28.1459
    -7.8528  -7.1921  -7.0499  -6.7694  -6.5667  -6.3450  -6.2690  -6.1199
     3.3286   3.5052   3.6569   4.0535   4.2200   4.5524   4.8026   5.1322
     5.3400   5.6527   5.8209   6.2894   6.4432   6.5616   6.8729   7.1152
     7.2708   7.5755   7.8059   8.0263   8.2462   8.6697   8.7321   8.8469
     9.1188   9.3971   9.5451   9.7362   9.8263  13.5966  13.9128  14.0110
    14.4206  14.5852  15.0634  16.7623  16.8147  16.9559  17.6338  17.7920
    18.1417

     occupation numbers 
     1.0000   1.0000   1.0000   1.0000   1.0000   1.0000   1.0000   1.0000
     1.0000   1.0000   1.0000   1.0000   1.0000   1.0000   1.0000   1.0000
     1.0000   1.0000   1.0000   1.0000   1.0000   1.0000   1.0000   1.0000
     1.0000   1.0000   1.0000   1.0000   1.0000   1.0000   1.0000   1.0000
     1.0000   1.0000   1.0000   1.0000   1.0000   1.0000   1.0000   1.0000
     1.0000   1.0000   1.0000   1.0000   1.0000   1.0000   1.0000   1.0000
     1.0000   1.0000   1.0000   1.0000   1.0000   0.0000   0.0000   0.0000
     0.0000   0.0000   0.0000   0.0000   0.0000   0.0000   0.0000   0.0000
     0.0000

          k = 0.4172 0.2045 0.2376 ( 19030 PWs)   bands (ev):

   -84.8565 -63.9130 -63.8982 -63.8718 -48.8720 -48.2739 -47.9156 -32.6852
   -32.6712 -32.6575 -28.3650 -28.3249 -28.2763 -28.2303 -28.1789 -28.1408
    -7.7029  -7.2250  -7.0125  -6.8266  -6.6344  -6.4281  -6.2201  -6.1236
     3.3656   3.5064   3.6533   4.0575   4.3388   4.5531   4.8671   5.0081
     5.2018   5.4479   5.8182   6.1010   6.3576   6.7229   6.8483   7.2369
     7.4345   7.8299   7.8715   8.1225   8.2462   8.4819   8.7101   8.8883
     9.0703   9.4107   9.4746   9.7070   9.8500  13.5436  13.9853  14.1828
    14.3467  14.5635  14.9615  16.6731  16.7912  16.9438  17.5241  17.7287
    18.1028

     occupation numbers 
     1.0000   1.0000   1.0000   1.0000   1.0000   1.0000   1.0000   1.0000
     1.0000   1.0000   1.0000   1.0000   1.0000   1.0000   1.0000   1.0000
     1.0000   1.0000   1.0000   1.0000   1.0000   1.0000   1.0000   1.0000
     1.0000   1.0000   1.0000   1.0000   1.0000   1.0000   1.0000   1.0000
     1.0000   1.0000   1.0000   1.0000   1.0000   1.0000   1.0000   1.0000
     1.0000   1.0000   1.0000   1.0000   1.0000   1.0000   1.0000   1.0000
     1.0000   1.0000   1.0000   1.0000   1.0000   0.0000   0.0000   0.0000
     0.0000   0.0000   0.0000   0.0000   0.0000   0.0000   0.0000   0.0000
     0.0000

          k = 0.4176 0.2045 0.3926 ( 19051 PWs)   bands (ev):

   -84.8565 -63.9124 -63.8988 -63.8719 -48.8720 -48.2739 -47.9156 -32.6853
   -32.6712 -32.6576 -28.3657 -28.3330 -28.2643 -28.2462 -28.1707 -28.1366
    -7.4537  -7.2450  -7.0674  -6.9450  -6.6519  -6.5056  -6.1758  -6.1420
     3.4010   3.5478   3.6796   4.1256   4.3898   4.4489   4.6380   4.8731
     5.1130   5.7040   5.9253   6.1462   6.2626   6.7523   6.9493   7.2849
     7.3643   7.6238   7.7653   8.1997   8.3160   8.5192   8.8632   8.9773
     9.0764   9.3512   9.4828   9.5821   9.8490  13.6673  13.9314  14.2068
    14.3916  14.4979  14.7614  16.6586  16.7663  16.8762  17.4540  17.6783
    18.1048

     occupation numbers 
     1.0000   1.0000   1.0000   1.0000   1.0000   1.0000   1.0000   1.0000
     1.0000   1.0000   1.0000   1.0000   1.0000   1.0000   1.0000   1.0000
     1.0000   1.0000   1.0000   1.0000   1.0000   1.0000   1.0000   1.0000
     1.0000   1.0000   1.0000   1.0000   1.0000   1.0000   1.0000   1.0000
     1.0000   1.0000   1.0000   1.0000   1.0000   1.0000   1.0000   1.0000
     1.0000   1.0000   1.0000   1.0000   1.0000   1.0000   1.0000   1.0000
     1.0000   1.0000   1.0000   1.0000   1.0000   0.0000   0.0000   0.0000
     0.0000   0.0000   0.0000   0.0000   0.0000   0.0000   0.0000   0.0000
     0.0000

          k = 0.4157 0.2045-0.3824 ( 19017 PWs)   bands (ev):

   -84.8565 -63.9124 -63.8988 -63.8719 -48.8720 -48.2739 -47.9156 -32.6853
   -32.6712 -32.6575 -28.3658 -28.3330 -28.2643 -28.2463 -28.1707 -28.1366
    -7.4648  -7.2106  -7.0761  -6.9375  -6.6094  -6.5833  -6.1931  -6.1165
     3.3936   3.5519   3.7165   4.1406   4.3114   4.5010   4.6924   4.7214
     5.2156   5.7085   5.9461   6.1675   6.2978   6.7536   6.9327   7.2155
     7.3509   7.6368   7.7877   8.1808   8.3854   8.5342   8.7711   8.9764
     9.1060   9.2605   9.4121   9.6860   9.8470  13.6352  13.9714  14.2118
    14.3226  14.4945  14.6956  16.7152  16.7620  16.8523  17.4970  17.7199
    18.0731

     occupation numbers 
     1.0000   1.0000   1.0000   1.0000   1.0000   1.0000   1.0000   1.0000
     1.0000   1.0000   1.0000   1.0000   1.0000   1.0000   1.0000   1.0000
     1.0000   1.0000   1.0000   1.0000   1.0000   1.0000   1.0000   1.0000
     1.0000   1.0000   1.0000   1.0000   1.0000   1.0000   1.0000   1.0000
     1.0000   1.0000   1.0000   1.0000   1.0000   1.0000   1.0000   1.0000
     1.0000   1.0000   1.0000   1.0000   1.0000   1.0000   1.0000   1.0000
     1.0000   1.0000   1.0000   1.0000   1.0000   0.0000   0.0000   0.0000
     0.0000   0.0000   0.0000   0.0000   0.0000   0.0000   0.0000   0.0000
     0.0000

          k = 0.4161 0.2045-0.2274 ( 19019 PWs)   bands (ev):

   -84.8566 -63.9130 -63.8981 -63.8718 -48.8720 -48.2739 -47.9156 -32.6853
   -32.6712 -32.6575 -28.3649 -28.3249 -28.2761 -28.2305 -28.1787 -28.1409
    -7.7134  -7.1930  -6.9302  -6.8262  -6.7241  -6.4951  -6.2034  -6.0975
     3.3564   3.4989   3.7031   4.0616   4.3502   4.5809   4.7944   4.8414
     5.3353   5.6939   5.8772   6.0443   6.2720   6.7257   6.8464   7.1617
     7.4890   7.7624   7.9297   8.1610   8.2759   8.4999   8.5540   8.9121
     9.0500   9.2490   9.5497   9.7470   9.8346  13.5299  13.9946  14.2046
    14.2656  14.4502  14.8944  16.7335  16.7828  16.9457  17.5608  17.7943
    18.1093

     occupation numbers 
     1.0000   1.0000   1.0000   1.0000   1.0000   1.0000   1.0000   1.0000
     1.0000   1.0000   1.0000   1.0000   1.0000   1.0000   1.0000   1.0000
     1.0000   1.0000   1.0000   1.0000   1.0000   1.0000   1.0000   1.0000
     1.0000   1.0000   1.0000   1.0000   1.0000   1.0000   1.0000   1.0000
     1.0000   1.0000   1.0000   1.0000   1.0000   1.0000   1.0000   1.0000
     1.0000   1.0000   1.0000   1.0000   1.0000   1.0000   1.0000   1.0000
     1.0000   1.0000   1.0000   1.0000   1.0000   0.0000   0.0000   0.0000
     0.0000   0.0000   0.0000   0.0000   0.0000   0.0000   0.0000   0.0000
     0.0000

          k = 0.4165 0.2045-0.0724 ( 19027 PWs)   bands (ev):

   -84.8566 -63.9136 -63.8976 -63.8718 -48.8720 -48.2739 -47.9156 -32.6852
   -32.6712 -32.6574 -28.3632 -28.3170 -28.2841 -28.2153 -28.1900 -28.1459
    -7.8572  -7.1862  -6.9975  -6.7601  -6.6502  -6.3681  -6.2520  -6.0981
     3.3243   3.4931   3.6777   4.0375   4.2548   4.5545   4.8215   5.0473
     5.3245   5.8044   5.8987   6.2313   6.3876   6.6117   6.8291   7.0738
     7.2973   7.5425   7.8630   8.0001   8.2677   8.5903   8.7290   8.8902
     9.0751   9.3802   9.5991   9.7177   9.8059  13.6148  13.9109  13.9837
    14.3766  14.5469  15.0376  16.7678  16.8232  16.9635  17.6102  17.8375
    18.1972

     occupation numbers 
     1.0000   1.0000   1.0000   1.0000   1.0000   1.0000   1.0000   1.0000
     1.0000   1.0000   1.0000   1.0000   1.0000   1.0000   1.0000   1.0000
     1.0000   1.0000   1.0000   1.0000   1.0000   1.0000   1.0000   1.0000
     1.0000   1.0000   1.0000   1.0000   1.0000   1.0000   1.0000   1.0000
     1.0000   1.0000   1.0000   1.0000   1.0000   1.0000   1.0000   1.0000
     1.0000   1.0000   1.0000   1.0000   1.0000   1.0000   1.0000   1.0000
     1.0000   1.0000   1.0000   1.0000   1.0000   0.0000   0.0000   0.0000
     0.0000   0.0000   0.0000   0.0000   0.0000   0.0000   0.0000   0.0000
     0.0000

          k = 0.4169 0.3409 0.0826 ( 19030 PWs)   bands (ev):

   -84.8566 -63.9135 -63.8977 -63.8718 -48.8720 -48.2739 -47.9156 -32.6852
   -32.6712 -32.6575 -28.3627 -28.3156 -28.2839 -28.2157 -28.1914 -28.1463
    -7.7819  -7.2776  -7.0731  -6.7783  -6.5914  -6.3443  -6.2075  -6.1055
     3.2649   3.4172   3.6235   4.0273   4.2225   4.5429   4.8800   5.3016
     5.5001   5.6932   5.9672   6.3765   6.4026   6.6935   6.7761   6.9940
     7.2461   7.5312   7.7992   7.9864   8.2063   8.4511   8.7398   8.8535
     9.1603   9.3300   9.4830   9.6496   9.7289  13.5347  13.9834  14.0692
    14.4951  14.5827  15.0788  16.7222  16.8387  16.9638  17.6195  17.7245
    18.0075

     occupation numbers 
     1.0000   1.0000   1.0000   1.0000   1.0000   1.0000   1.0000   1.0000
     1.0000   1.0000   1.0000   1.0000   1.0000   1.0000   1.0000   1.0000
     1.0000   1.0000   1.0000   1.0000   1.0000   1.0000   1.0000   1.0000
     1.0000   1.0000   1.0000   1.0000   1.0000   1.0000   1.0000   1.0000
     1.0000   1.0000   1.0000   1.0000   1.0000   1.0000   1.0000   1.0000
     1.0000   1.0000   1.0000   1.0000   1.0000   1.0000   1.0000   1.0000
     1.0000   1.0000   1.0000   1.0000   1.0000   0.0000   0.0000   0.0000
     0.0000   0.0000   0.0000   0.0000   0.0000   0.0000   0.0000   0.0000
     0.0000

          k = 0.4172 0.3409 0.2376 ( 19018 PWs)   bands (ev):

   -84.8565 -63.9128 -63.8983 -63.8719 -48.8720 -48.2739 -47.9156 -32.6852
   -32.6712 -32.6575 -28.3654 -28.3248 -28.2757 -28.2307 -28.1791 -28.1404
    -7.6562  -7.3093  -7.0346  -6.8344  -6.5590  -6.4422  -6.2154  -6.1136
     3.2762   3.4554   3.6401   3.9922   4.3104   4.4259   5.0375   5.0677
     5.3880   5.6124   5.8504   6.1904   6.4809   6.7278   6.9465   7.2202
     7.3053   7.6917   7.9530   8.0462   8.2059   8.4880   8.5877   8.8729
     8.9847   9.2762   9.4422   9.6579   9.7452  13.5146  14.0561  14.1892
    14.3740  14.5783  14.9788  16.6297  16.8098  16.8993  17.5228  17.6970
    18.0042

     occupation numbers 
     1.0000   1.0000   1.0000   1.0000   1.0000   1.0000   1.0000   1.0000
     1.0000   1.0000   1.0000   1.0000   1.0000   1.0000   1.0000   1.0000
     1.0000   1.0000   1.0000   1.0000   1.0000   1.0000   1.0000   1.0000
     1.0000   1.0000   1.0000   1.0000   1.0000   1.0000   1.0000   1.0000
     1.0000   1.0000   1.0000   1.0000   1.0000   1.0000   1.0000   1.0000
     1.0000   1.0000   1.0000   1.0000   1.0000   1.0000   1.0000   1.0000
     1.0000   1.0000   1.0000   1.0000   1.0000   0.0000   0.0000   0.0000
     0.0000   0.0000   0.0000   0.0000   0.0000   0.0000   0.0000   0.0000
     0.0000

          k = 0.4176 0.3409 0.3926 ( 19026 PWs)   bands (ev):

   -84.8565 -63.9122 -63.8989 -63.8719 -48.8720 -48.2739 -47.9156 -32.6853
   -32.6712 -32.6576 -28.3670 -28.3338 -28.2639 -28.2462 -28.1699 -28.1356
    -7.4536  -7.3228  -7.0402  -6.9729  -6.5451  -6.4766  -6.2177  -6.1451
     3.2885   3.5064   3.7271   4.0187   4.2774   4.3605   4.6952   5.0189
     5.3941   5.7064   6.0360   6.1432   6.3504   6.7204   7.0546   7.3413
     7.4091   7.7229   7.8550   8.1872   8.2668   8.3598   8.7353   8.8575
     8.9651   9.2099   9.4437   9.5476   9.7164  13.6388  14.0330  14.1424
    14.3281  14.5734  14.7817  16.5889  16.7377  16.8038  17.4575  17.6694
    18.1055

     occupation numbers 
     1.0000   1.0000   1.0000   1.0000   1.0000   1.0000   1.0000   1.0000
     1.0000   1.0000   1.0000   1.0000   1.0000   1.0000   1.0000   1.0000
     1.0000   1.0000   1.0000   1.0000   1.0000   1.0000   1.0000   1.0000
     1.0000   1.0000   1.0000   1.0000   1.0000   1.0000   1.0000   1.0000
     1.0000   1.0000   1.0000   1.0000   1.0000   1.0000   1.0000   1.0000
     1.0000   1.0000   1.0000   1.0000   1.0000   1.0000   1.0000   1.0000
     1.0000   1.0000   1.0000   1.0000   1.0000   0.0000   0.0000   0.0000
     0.0000   0.0000   0.0000   0.0000   0.0000   0.0000   0.0000   0.0000
     0.0000

          k = 0.4157 0.3409-0.3824 ( 19013 PWs)   bands (ev):

   -84.8565 -63.9122 -63.8989 -63.8719 -48.8720 -48.2739 -47.9156 -32.6853
   -32.6712 -32.6576 -28.3670 -28.3338 -28.2638 -28.2464 -28.1699 -28.1356
    -7.4584  -7.2690  -7.0818  -6.9761  -6.5368  -6.5074  -6.2350  -6.1138
     3.2879   3.5079   3.7705   4.1037   4.2217   4.4234   4.5987   4.8797
     5.4629   5.7331   5.9827   6.1985   6.3986   6.7844   6.9900   7.2369
     7.4228   7.8484   7.9573   8.0735   8.2557   8.4039   8.6728   8.8361
     9.0896   9.1787   9.3033   9.4988   9.7991  13.6159  14.0298  14.1624
    14.3220  14.5443  14.6645  16.6311  16.7277  16.7883  17.4863  17.7003
    18.1906

     occupation numbers 
     1.0000   1.0000   1.0000   1.0000   1.0000   1.0000   1.0000   1.0000
     1.0000   1.0000   1.0000   1.0000   1.0000   1.0000   1.0000   1.0000
     1.0000   1.0000   1.0000   1.0000   1.0000   1.0000   1.0000   1.0000
     1.0000   1.0000   1.0000   1.0000   1.0000   1.0000   1.0000   1.0000
     1.0000   1.0000   1.0000   1.0000   1.0000   1.0000   1.0000   1.0000
     1.0000   1.0000   1.0000   1.0000   1.0000   1.0000   1.0000   1.0000
     1.0000   1.0000   1.0000   1.0000   1.0000   0.0000   0.0000   0.0000
     0.0000   0.0000   0.0000   0.0000   0.0000   0.0000   0.0000   0.0000
     0.0000

          k = 0.4161 0.3409-0.2274 ( 18997 PWs)   bands (ev):

   -84.8565 -63.9129 -63.8983 -63.8718 -48.8720 -48.2739 -47.9156 -32.6853
   -32.6712 -32.6575 -28.3653 -28.3248 -28.2756 -28.2309 -28.1789 -28.1404
    -7.6550  -7.2732  -6.9790  -6.8591  -6.6796  -6.4668  -6.1733  -6.0870
     3.2792   3.4459   3.7165   3.9992   4.3390   4.5796   4.7598   4.9723
     5.3737   5.7509   5.9655   6.1292   6.3023   6.7351   7.0712   7.3066
     7.4556   7.6701   7.9321   8.0314   8.1767   8.3817   8.5814   8.9505
     9.0216   9.1508   9.4467   9.5472   9.8095  13.5072  14.0915  14.2000
    14.3118  14.4136  14.8665  16.6742  16.7823  16.9081  17.5120  17.7736
    18.1807

     occupation numbers 
     1.0000   1.0000   1.0000   1.0000   1.0000   1.0000   1.0000   1.0000
     1.0000   1.0000   1.0000   1.0000   1.0000   1.0000   1.0000   1.0000
     1.0000   1.0000   1.0000   1.0000   1.0000   1.0000   1.0000   1.0000
     1.0000   1.0000   1.0000   1.0000   1.0000   1.0000   1.0000   1.0000
     1.0000   1.0000   1.0000   1.0000   1.0000   1.0000   1.0000   1.0000
     1.0000   1.0000   1.0000   1.0000   1.0000   1.0000   1.0000   1.0000
     1.0000   1.0000   1.0000   1.0000   1.0000   0.0000   0.0000   0.0000
     0.0000   0.0000   0.0000   0.0000   0.0000   0.0000   0.0000   0.0000
     0.0000

          k = 0.4165 0.3409-0.0724 ( 19013 PWs)   bands (ev):

   -84.8566 -63.9135 -63.8977 -63.8718 -48.8720 -48.2739 -47.9156 -32.6852
   -32.6712 -32.6575 -28.3626 -28.3157 -28.2838 -28.2159 -28.1912 -28.1463
    -7.7817  -7.2755  -7.0126  -6.7816  -6.6877  -6.3608  -6.1785  -6.0851
     3.2675   3.4090   3.6538   3.9935   4.2604   4.6151   4.9174   5.1331
     5.4459   5.7593   5.9660   6.3019   6.4850   6.6896   6.7846   7.0313
     7.3542   7.4701   7.8126   8.0146   8.1530   8.4724   8.6281   8.9582
     9.1379   9.2713   9.5155   9.6305   9.7136  13.5506  14.0137  14.0353
    14.4228  14.5411  15.0390  16.7333  16.8241  16.9718  17.5432  17.8344
    18.1147

     occupation numbers 
     1.0000   1.0000   1.0000   1.0000   1.0000   1.0000   1.0000   1.0000
     1.0000   1.0000   1.0000   1.0000   1.0000   1.0000   1.0000   1.0000
     1.0000   1.0000   1.0000   1.0000   1.0000   1.0000   1.0000   1.0000
     1.0000   1.0000   1.0000   1.0000   1.0000   1.0000   1.0000   1.0000
     1.0000   1.0000   1.0000   1.0000   1.0000   1.0000   1.0000   1.0000
     1.0000   1.0000   1.0000   1.0000   1.0000   1.0000   1.0000   1.0000
     1.0000   1.0000   1.0000   1.0000   1.0000   0.0000   0.0000   0.0000
     0.0000   0.0000   0.0000   0.0000   0.0000   0.0000   0.0000   0.0000
     0.0000

     the Fermi energy is    12.4323 ev

!    total energy              =   -1090.46345278 Ry
     estimated scf accuracy    <          6.0E-10 Ry
     smearing contrib. (-TS)   =       0.00000000 Ry
     internal energy E=F+TS    =   -1090.46345278 Ry

     The total energy is F=E-TS. E is the sum of the following terms:
     one-electron contribution =    -435.71375928 Ry
     hartree contribution      =     277.02610791 Ry
     xc contribution           =    -224.07625934 Ry
     ewald contribution        =    -707.82430423 Ry
     Hubbard energy            =       0.12476215 Ry

     total magnetization       =     2.00 Bohr mag/cell
     absolute magnetization    =     7.80 Bohr mag/cell

     convergence has been achieved in  29 iterations

     Writing all to output data dir ./tmp/MnCoWO4_AFM/MnCoWO4_AFM.save/ :
     XML data file, charge density
     init_run     :      3.98s CPU      4.11s WALL (       1 calls)
     electrons    :    317.46s CPU    320.77s WALL (       1 calls)

     Called by init_run:
     wfcinit      :      3.93s CPU      4.03s WALL (       1 calls)
     wfcinit:atom :      0.02s CPU      0.02s WALL (     108 calls)
     wfcinit:wfcr :      3.06s CPU      3.14s WALL (     108 calls)
     potinit      :      0.01s CPU      0.02s WALL (       1 calls)
     hinit0       :      0.01s CPU      0.03s WALL (       1 calls)

     Called by electrons:
     c_bands      :    286.66s CPU    289.44s WALL (      29 calls)
     sum_band     :     30.16s CPU     30.58s WALL (      29 calls)
     v_of_rho     :      0.27s CPU      0.28s WALL (      30 calls)
     v_h          :      0.01s CPU      0.01s WALL (      30 calls)
     v_xc         :      0.26s CPU      0.27s WALL (      30 calls)
     mix_rho      :      0.35s CPU      0.36s WALL (      29 calls)

     Called by c_bands:
     init_us_2    :      3.99s CPU      4.11s WALL (    6480 calls)
     cegterg      :    266.84s CPU    269.32s WALL (    3132 calls)

     Called by sum_band:
     sum_band:wei :      0.19s CPU      0.20s WALL (      29 calls)
     sum_band:loo :     28.37s CPU     28.71s WALL (      29 calls)
     sum_band:buf :      0.41s CPU      0.41s WALL (    3132 calls)
     sum_band:ini :      1.33s CPU      1.34s WALL (    3132 calls)

     Called by *egterg:
     cdiaghg      :     45.56s CPU     45.77s WALL (   15041 calls)
     cegterg:over :     13.68s CPU     13.78s WALL (   11909 calls)
     cegterg:upda :      7.53s CPU      7.58s WALL (   11909 calls)
     cegterg:last :     12.89s CPU     12.97s WALL (    6726 calls)
     h_psi        :    181.60s CPU    183.69s WALL (   15149 calls)
     g_psi        :      0.60s CPU      0.60s WALL (   11909 calls)

     Called by h_psi:
     h_psi:calbec :     21.14s CPU     21.29s WALL (   15149 calls)
     vloc_psi     :    134.00s CPU    135.75s WALL (   15149 calls)
     add_vuspsi   :     18.15s CPU     18.29s WALL (   15149 calls)
     vhpsi        :      7.42s CPU      7.47s WALL (   15149 calls)

     General routines
     calbec       :     28.91s CPU     29.16s WALL (   33538 calls)
     fft          :      0.11s CPU      0.13s WALL (     568 calls)
     ffts         :      0.19s CPU      0.19s WALL (     956 calls)
     fftw         :    150.27s CPU    152.19s WALL ( 1274192 calls)
 
     Parallel routines

     Hubbard U routines
     new_ns       :      1.55s CPU      1.62s WALL (      29 calls)
     vhpsi        :      7.42s CPU      7.47s WALL (   15149 calls)
 
     PWSCF        :   5m21.51s CPU   5m25.07s WALL

 
   This run was terminated on:   8:58:37   9Mar2026            

=------------------------------------------------------------------------------=
   JOB DONE.
=------------------------------------------------------------------------------=
