
     Program PWSCF v.7.4.1 starts on  9Mar2026 at  8:53:12 
        Git branch: heads/qe-7.4.1
        Last git commit: 500de340b820e1cb8c05f2d8bb8fced102f377c1-dirty
        Last git commit date: Fri Feb 7 14:59:05 2025 +0000
        Last git commit subject: Merge branch 'qe-7.4.1' into 'master'

     This program is part of the open-source Quantum ESPRESSO suite
     for quantum simulation of materials; please cite
         "P. Giannozzi et al., J. Phys.:Condens. Matter 21 395502 (2009);
         "P. Giannozzi et al., J. Phys.:Condens. Matter 29 465901 (2017);
         "P. Giannozzi et al., J. Chem. Phys. 152 154105 (2020);
          URL http://www.quantum-espresso.org", 
     in publications or presentations arising from this work. More details at
     http://www.quantum-espresso.org/quote

     Parallel version (MPI), running on    24 processors

     MPI processes distributed on     1 nodes
     677893 MiB available memory on the printing compute node when the environment starts
 
     Reading input from inputs_FM/MnZnWO4_FM.in

     Current dimensions of program PWSCF are:
     Max number of different atomic species (ntypx) = 10
     Max number of k-points (npk) =  40000
     Max angular momentum in pseudopotentials (lmaxx) =  4
     Message from routine setup:
     using ibrav=0 with symmetry is DISCOURAGED, use correct ibrav instead
 
     R & G space division:  proc/nbgrp/npool/nimage =      24
     Subspace diagonalization in iterative solution of the eigenvalue problem:
     a serial algorithm will be used

 
     Parallelization info
     --------------------
     sticks:   dense  smooth     PW     G-vecs:    dense   smooth      PW
     Min         153     153     41                 6687     6687     947
     Max         154     154     42                 6690     6690     951
     Sum        3685    3685   1007               160519   160519   22785
 
     Using Slab Decomposition
 


     bravais-lattice index     =            0
     lattice parameter (alat)  =       8.9211  a.u.
     unit-cell volume          =     903.8260 (a.u.)^3
     number of atoms/cell      =           12
     number of atomic types    =            4
     number of electrons       =       111.00
     number of Kohn-Sham states=           67
     kinetic-energy cutoff     =     120.0000  Ry
     charge density cutoff     =     480.0000  Ry
     scf convergence threshold =      1.0E-09
     mixing beta               =       0.7000
     number of iterations used =            8  local-TF  mixing
     Exchange-correlation= PBESOL
                           (   1   4  10   8   0   0   0)
     Hubbard projectors: ortho-atomic
     Hubbard parameters of DFT+U (Dudarev formulation) in eV:
     U(Mn-3d) =  4.6500

     Internal variables: lda_plus_u = T, lda_plus_u_kind = 0

     celldm(1)=   8.921088  celldm(2)=   0.000000  celldm(3)=   0.000000
     celldm(4)=   0.000000  celldm(5)=   0.000000  celldm(6)=   0.000000

     crystal axes: (cart. coord. in units of alat)
               a(1) = (   1.000000   0.000000   0.000189 )  
               a(2) = (   0.000000   1.213933   0.000000 )  
               a(3) = (  -0.015058   0.000000   1.048662 )  

     reciprocal axes: (cart. coord. in units 2 pi/alat)
               b(1) = (  0.999997  0.000000  0.014359 )  
               b(2) = (  0.000000  0.823769  0.000000 )  
               b(3) = ( -0.000180  0.000000  0.953594 )  


     PseudoPot. # 1 for Mn read from file:
     pseudo_dojo_pbesol/Mn.upf
     MD5 check sum: ef44e22c4884c1dd3870421f9f7ffd72
     Pseudo is Norm-conserving + core correction, Zval = 15.0
     Generated using ONCVPSP code by D. R. Hamann
     Using radial grid of 1448 points,  6 beta functions with: 
                l(1) =   0
                l(2) =   0
                l(3) =   1
                l(4) =   1
                l(5) =   2
                l(6) =   2

     PseudoPot. # 2 for Zn read from file:
     pseudo_dojo_pbesol/Zn.upf
     MD5 check sum: 467f93e155d0efaa76d9631813dc183d
     Pseudo is Norm-conserving + core correction, Zval = 20.0
     Generated using ONCVPSP code by D. R. Hamann
     Using radial grid of 1312 points,  6 beta functions with: 
                l(1) =   0
                l(2) =   0
                l(3) =   1
                l(4) =   1
                l(5) =   2
                l(6) =   2

     PseudoPot. # 3 for W  read from file:
     pseudo_dojo_pbesol/W.upf
     MD5 check sum: b5ac44390825a9169ccdba7091ec60d0
     Pseudo is Norm-conserving + core correction, Zval = 14.0
     Generated using ONCVPSP code by D. R. Hamann
     Using radial grid of 1396 points,  8 beta functions with: 
                l(1) =   0
                l(2) =   0
                l(3) =   1
                l(4) =   1
                l(5) =   2
                l(6) =   2
                l(7) =   3
                l(8) =   3

     PseudoPot. # 4 for O  read from file:
     pseudo_dojo_pbesol/O.upf
     MD5 check sum: f226cbcd508cec715ff87a8f75a1dfba
     Pseudo is Norm-conserving + core correction, Zval =  6.0
     Generated using ONCVPSP code by D. R. Hamann
     Using radial grid of  936 points,  5 beta functions with: 
                l(1) =   0
                l(2) =   0
                l(3) =   1
                l(4) =   1
                l(5) =   2

     atomic species   valence    mass     pseudopotential
     Mn               15.00    54.93805     Mn( 1.00)
     Zn               20.00    65.39000     Zn( 1.00)
     W                14.00   183.84000     W ( 1.00)
     O                 6.00    15.99940     O ( 1.00)

     Starting magnetic structure 
     atomic species   magnetization
     Mn              0.200
     Zn              0.000
     W               0.000
     O               0.000

      2 Sym. Ops. (no inversion) found ( 1 have fractional translation)


                                    s                        frac. trans.

      isym =  1     identity                                     

 cryst.   s( 1) = (     1          0          0      )
                  (     0          1          0      )
                  (     0          0          1      )

 cart.    s( 1) = (  1.0000000  0.0000000  0.0000000 )
                  (  0.0000000  1.0000000  0.0000000 )
                  (  0.0000000  0.0000000  1.0000000 )


      isym =  2     180 deg rotation - cart. axis [0,1,0]        

 cryst.   s( 2) = (    -1          0          0      )    f =(  0.0000000 )
                  (     0          1          0      )       (  0.0000000 )
                  (     0          0         -1      )       (  0.5000000 )

 cart.    s( 2) = ( -1.0000000  0.0000000  0.0000000 )    f =( -0.0075290 )
                  (  0.0000000  1.0000000  0.0000000 )       (  0.0000000 )
                  (  0.0000000  0.0000000 -1.0000000 )       (  0.5243309 )


   Cartesian axes

     site n.     atom                  positions (alat units)
         1        Mn     tau(   1) = (   0.4887065   0.8207748   0.7865908  )
         2        Zn     tau(   2) = (   0.4962355   0.3840757   0.2622599  )
         3        W      tau(   3) = (  -0.0112935   0.2197431   0.7864963  )
         4        W      tau(   4) = (  -0.0037645   0.9970800   0.2621654  )
         5        O      tau(   5) = (   0.2414989   0.4526504   0.9488005  )
         6        O      tau(   6) = (   0.7359141   0.4526504   0.6243811  )
         7        O      tau(   7) = (   0.7440288   0.7564558   0.1137577  )
         8        O      tau(   8) = (   0.2484422   0.7564558   0.4107622  )
         9        O      tau(   9) = (   0.1945433   1.0915475   0.9836671  )
        10        O      tau(  10) = (   0.7828697   1.0915475   0.5895146  )
        11        O      tau(  11) = (   0.7801184   0.1303085   0.0647063  )
        12        O      tau(  12) = (   0.2123525   0.1303085   0.4598136  )

   Crystallographic axes

     site n.     atom                  positions (cryst. coord.)
         1        Mn     tau(   1) = (  0.5000000  0.6761286  0.7500000  )
         2        Zn     tau(   2) = (  0.5000000  0.3163895  0.2500000  )
         3        W      tau(   3) = (  0.0000000  0.1810175  0.7500000  )
         4        W      tau(   4) = (  0.0000000  0.8213633  0.2500000  )
         5        O      tau(   5) = (  0.2551223  0.3728792  0.9047267  )
         6        O      tau(   6) = (  0.7448777  0.3728792  0.5952733  )
         7        O      tau(   7) = (  0.7456602  0.6231446  0.1083445  )
         8        O      tau(   8) = (  0.2543398  0.6231446  0.3916555  )
         9        O      tau(   9) = (  0.2086675  0.8991826  0.9379837  )
        10        O      tau(  10) = (  0.7913325  0.8991826  0.5620163  )
        11        O      tau(  11) = (  0.7810455  0.1073441  0.0615629  )
        12        O      tau(  12) = (  0.2189545  0.1073441  0.4384371  )

     number of k points=    54  Marzari-Vanderbilt smearing, width (Ry)=  0.0200
                       cart. coord. in units 2pi/alat
        k(    1) = (   0.0833181   0.0686474   0.0806627), wk =   0.0185185
        k(    2) = (   0.0832881   0.0686474   0.2395950), wk =   0.0185185
        k(    3) = (   0.0832580   0.0686474   0.3985273), wk =   0.0185185
        k(    4) = (   0.0834082   0.0686474  -0.3961341), wk =   0.0185185
        k(    5) = (   0.0833782   0.0686474  -0.2372018), wk =   0.0185185
        k(    6) = (   0.0833481   0.0686474  -0.0782695), wk =   0.0185185
        k(    7) = (   0.0833181   0.2059422   0.0806627), wk =   0.0185185
        k(    8) = (   0.0832881   0.2059422   0.2395950), wk =   0.0185185
        k(    9) = (   0.0832580   0.2059422   0.3985273), wk =   0.0185185
        k(   10) = (   0.0834082   0.2059422  -0.3961341), wk =   0.0185185
        k(   11) = (   0.0833782   0.2059422  -0.2372018), wk =   0.0185185
        k(   12) = (   0.0833481   0.2059422  -0.0782695), wk =   0.0185185
        k(   13) = (   0.0833181   0.3432370   0.0806627), wk =   0.0185185
        k(   14) = (   0.0832881   0.3432370   0.2395950), wk =   0.0185185
        k(   15) = (   0.0832580   0.3432370   0.3985273), wk =   0.0185185
        k(   16) = (   0.0834082   0.3432370  -0.3961341), wk =   0.0185185
        k(   17) = (   0.0833782   0.3432370  -0.2372018), wk =   0.0185185
        k(   18) = (   0.0833481   0.3432370  -0.0782695), wk =   0.0185185
        k(   19) = (   0.2499843   0.0686474   0.0830560), wk =   0.0185185
        k(   20) = (   0.2499543   0.0686474   0.2419882), wk =   0.0185185
        k(   21) = (   0.2499242   0.0686474   0.4009205), wk =   0.0185185
        k(   22) = (   0.2500744   0.0686474  -0.3937409), wk =   0.0185185
        k(   23) = (   0.2500444   0.0686474  -0.2348086), wk =   0.0185185
        k(   24) = (   0.2500143   0.0686474  -0.0758763), wk =   0.0185185
        k(   25) = (   0.2499843   0.2059422   0.0830560), wk =   0.0185185
        k(   26) = (   0.2499543   0.2059422   0.2419882), wk =   0.0185185
        k(   27) = (   0.2499242   0.2059422   0.4009205), wk =   0.0185185
        k(   28) = (   0.2500744   0.2059422  -0.3937409), wk =   0.0185185
        k(   29) = (   0.2500444   0.2059422  -0.2348086), wk =   0.0185185
        k(   30) = (   0.2500143   0.2059422  -0.0758763), wk =   0.0185185
        k(   31) = (   0.2499843   0.3432370   0.0830560), wk =   0.0185185
        k(   32) = (   0.2499543   0.3432370   0.2419882), wk =   0.0185185
        k(   33) = (   0.2499242   0.3432370   0.4009205), wk =   0.0185185
        k(   34) = (   0.2500744   0.3432370  -0.3937409), wk =   0.0185185
        k(   35) = (   0.2500444   0.3432370  -0.2348086), wk =   0.0185185
        k(   36) = (   0.2500143   0.3432370  -0.0758763), wk =   0.0185185
        k(   37) = (   0.4166505   0.0686474   0.0854492), wk =   0.0185185
        k(   38) = (   0.4166205   0.0686474   0.2443814), wk =   0.0185185
        k(   39) = (   0.4165905   0.0686474   0.4033137), wk =   0.0185185
        k(   40) = (   0.4167406   0.0686474  -0.3913477), wk =   0.0185185
        k(   41) = (   0.4167106   0.0686474  -0.2324154), wk =   0.0185185
        k(   42) = (   0.4166806   0.0686474  -0.0734831), wk =   0.0185185
        k(   43) = (   0.4166505   0.2059422   0.0854492), wk =   0.0185185
        k(   44) = (   0.4166205   0.2059422   0.2443814), wk =   0.0185185
        k(   45) = (   0.4165905   0.2059422   0.4033137), wk =   0.0185185
        k(   46) = (   0.4167406   0.2059422  -0.3913477), wk =   0.0185185
        k(   47) = (   0.4167106   0.2059422  -0.2324154), wk =   0.0185185
        k(   48) = (   0.4166806   0.2059422  -0.0734831), wk =   0.0185185
        k(   49) = (   0.4166505   0.3432370   0.0854492), wk =   0.0185185
        k(   50) = (   0.4166205   0.3432370   0.2443814), wk =   0.0185185
        k(   51) = (   0.4165905   0.3432370   0.4033137), wk =   0.0185185
        k(   52) = (   0.4167406   0.3432370  -0.3913477), wk =   0.0185185
        k(   53) = (   0.4167106   0.3432370  -0.2324154), wk =   0.0185185
        k(   54) = (   0.4166806   0.3432370  -0.0734831), wk =   0.0185185

                       cryst. coord.
        k(    1) = (   0.0833333   0.0833333   0.0833333), wk =   0.0185185
        k(    2) = (   0.0833333   0.0833333   0.2500000), wk =   0.0185185
        k(    3) = (   0.0833333   0.0833333   0.4166667), wk =   0.0185185
        k(    4) = (   0.0833333   0.0833333  -0.4166667), wk =   0.0185185
        k(    5) = (   0.0833333   0.0833333  -0.2500000), wk =   0.0185185
        k(    6) = (   0.0833333   0.0833333  -0.0833333), wk =   0.0185185
        k(    7) = (   0.0833333   0.2500000   0.0833333), wk =   0.0185185
        k(    8) = (   0.0833333   0.2500000   0.2500000), wk =   0.0185185
        k(    9) = (   0.0833333   0.2500000   0.4166667), wk =   0.0185185
        k(   10) = (   0.0833333   0.2500000  -0.4166667), wk =   0.0185185
        k(   11) = (   0.0833333   0.2500000  -0.2500000), wk =   0.0185185
        k(   12) = (   0.0833333   0.2500000  -0.0833333), wk =   0.0185185
        k(   13) = (   0.0833333   0.4166667   0.0833333), wk =   0.0185185
        k(   14) = (   0.0833333   0.4166667   0.2500000), wk =   0.0185185
        k(   15) = (   0.0833333   0.4166667   0.4166667), wk =   0.0185185
        k(   16) = (   0.0833333   0.4166667  -0.4166667), wk =   0.0185185
        k(   17) = (   0.0833333   0.4166667  -0.2500000), wk =   0.0185185
        k(   18) = (   0.0833333   0.4166667  -0.0833333), wk =   0.0185185
        k(   19) = (   0.2500000   0.0833333   0.0833333), wk =   0.0185185
        k(   20) = (   0.2500000   0.0833333   0.2500000), wk =   0.0185185
        k(   21) = (   0.2500000   0.0833333   0.4166667), wk =   0.0185185
        k(   22) = (   0.2500000   0.0833333  -0.4166667), wk =   0.0185185
        k(   23) = (   0.2500000   0.0833333  -0.2500000), wk =   0.0185185
        k(   24) = (   0.2500000   0.0833333  -0.0833333), wk =   0.0185185
        k(   25) = (   0.2500000   0.2500000   0.0833333), wk =   0.0185185
        k(   26) = (   0.2500000   0.2500000   0.2500000), wk =   0.0185185
        k(   27) = (   0.2500000   0.2500000   0.4166667), wk =   0.0185185
        k(   28) = (   0.2500000   0.2500000  -0.4166667), wk =   0.0185185
        k(   29) = (   0.2500000   0.2500000  -0.2500000), wk =   0.0185185
        k(   30) = (   0.2500000   0.2500000  -0.0833333), wk =   0.0185185
        k(   31) = (   0.2500000   0.4166667   0.0833333), wk =   0.0185185
        k(   32) = (   0.2500000   0.4166667   0.2500000), wk =   0.0185185
        k(   33) = (   0.2500000   0.4166667   0.4166667), wk =   0.0185185
        k(   34) = (   0.2500000   0.4166667  -0.4166667), wk =   0.0185185
        k(   35) = (   0.2500000   0.4166667  -0.2500000), wk =   0.0185185
        k(   36) = (   0.2500000   0.4166667  -0.0833333), wk =   0.0185185
        k(   37) = (   0.4166667   0.0833333   0.0833333), wk =   0.0185185
        k(   38) = (   0.4166667   0.0833333   0.2500000), wk =   0.0185185
        k(   39) = (   0.4166667   0.0833333   0.4166667), wk =   0.0185185
        k(   40) = (   0.4166667   0.0833333  -0.4166667), wk =   0.0185185
        k(   41) = (   0.4166667   0.0833333  -0.2500000), wk =   0.0185185
        k(   42) = (   0.4166667   0.0833333  -0.0833333), wk =   0.0185185
        k(   43) = (   0.4166667   0.2500000   0.0833333), wk =   0.0185185
        k(   44) = (   0.4166667   0.2500000   0.2500000), wk =   0.0185185
        k(   45) = (   0.4166667   0.2500000   0.4166667), wk =   0.0185185
        k(   46) = (   0.4166667   0.2500000  -0.4166667), wk =   0.0185185
        k(   47) = (   0.4166667   0.2500000  -0.2500000), wk =   0.0185185
        k(   48) = (   0.4166667   0.2500000  -0.0833333), wk =   0.0185185
        k(   49) = (   0.4166667   0.4166667   0.0833333), wk =   0.0185185
        k(   50) = (   0.4166667   0.4166667   0.2500000), wk =   0.0185185
        k(   51) = (   0.4166667   0.4166667   0.4166667), wk =   0.0185185
        k(   52) = (   0.4166667   0.4166667  -0.4166667), wk =   0.0185185
        k(   53) = (   0.4166667   0.4166667  -0.2500000), wk =   0.0185185
        k(   54) = (   0.4166667   0.4166667  -0.0833333), wk =   0.0185185

     Dense  grid:   160519 G-vectors     FFT dimensions: (  64,  75,  72)

     Dynamical RAM for                 wfc:       0.85 MB

     Dynamical RAM for     wfc (w. buffer):      93.05 MB

     Dynamical RAM for             U proj.:       0.06 MB

     Dynamical RAM for  U proj. (w. buff.):       6.94 MB

     Dynamical RAM for           str. fact:       0.41 MB

     Dynamical RAM for           local pot:       0.00 MB

     Dynamical RAM for          nlocal pot:       2.60 MB

     Dynamical RAM for                qrad:      16.87 MB

     Dynamical RAM for          rho,v,vnew:       1.27 MB

     Dynamical RAM for               rhoin:       0.42 MB

     Dynamical RAM for            rho*nmix:       3.27 MB

     Dynamical RAM for           G-vectors:       0.43 MB

     Dynamical RAM for          h,s,v(r/c):       0.82 MB

     Dynamical RAM for          <psi|beta>:       0.21 MB

     Dynamical RAM for                 psi:       1.71 MB

     Dynamical RAM for                hpsi:       1.71 MB

     Dynamical RAM for      wfcinit/wfcrot:       1.81 MB

     Estimated static dynamical RAM per process >     123.17 MB

     Estimated max dynamical RAM per process >     130.88 MB

     Estimated total dynamical RAM >       3.07 GB
     Generating pointlists ...
     new r_m :   0.1839 (alat units)  1.6403 (a.u.) for type    1
     new r_m :   0.1769 (alat units)  1.5786 (a.u.) for type    2
     new r_m :   0.1563 (alat units)  1.3944 (a.u.) for type    3
     new r_m :   0.1563 (alat units)  1.3944 (a.u.) for type    4

     Initial potential from superposition of free atoms

     starting charge     110.9984, renormalised to     111.0000

     HUBBARD ENERGY =    0.0000  (Ry)

     STARTING HUBBARD OCCUPATIONS:

     =================== HUBBARD OCCUPATIONS ===================
     ------------------------ ATOM    1 ------------------------
     Tr[ns(  1)] (up, down, total) =   5.00000  0.00000  5.00000
     Atomic magnetic moment for atom   1 =   5.00000
     SPIN  1
     eigenvalues:
       1.000  1.000  1.000  1.000  1.000
     eigenvectors (columns):
       1.000  0.000  0.000  0.000  0.000
       0.000  1.000  0.000  0.000  0.000
       0.000  0.000  1.000  0.000  0.000
       0.000  0.000  0.000  1.000  0.000
       0.000  0.000  0.000  0.000  1.000
     occupation matrix ns (before diag.):
       1.000  0.000  0.000  0.000  0.000
       0.000  1.000  0.000  0.000  0.000
       0.000  0.000  1.000  0.000  0.000
       0.000  0.000  0.000  1.000  0.000
       0.000  0.000  0.000  0.000  1.000
     SPIN  2
     eigenvalues:
       0.000  0.000  0.000  0.000  0.000
     eigenvectors (columns):
       1.000  0.000  0.000  0.000  0.000
       0.000  1.000  0.000  0.000  0.000
       0.000  0.000  1.000  0.000  0.000
       0.000  0.000  0.000  1.000  0.000
       0.000  0.000  0.000  0.000  1.000
     occupation matrix ns (before diag.):
       0.000  0.000  0.000  0.000  0.000
       0.000  0.000  0.000  0.000  0.000
       0.000  0.000  0.000  0.000  0.000
       0.000  0.000  0.000  0.000  0.000
       0.000  0.000  0.000  0.000  0.000

     Number of occupied Hubbard levels =    5.0000

     Atomic wfc used for Hubbard projectors are orthogonalized

     Starting wfcs are   72 randomized atomic wfcs

     total cpu time spent up to now is        4.3 secs

     per-process dynamical memory:   174.2 Mb

     Self-consistent Calculation

     iteration #  1     ecut=   120.00 Ry     beta= 0.70
     Davidson diagonalization with overlap

---- Real-time Memory Report at c_bands before calling an iterative solver
           209 MiB given to the printing process from OS
           170 MiB allocation reported by mallinfo(arena+hblkhd)
        665027 MiB available memory on the node where the printing process lives
------------------
     ethr =  1.00E-02,  avg # of iterations =  3.1

     =================== HUBBARD OCCUPATIONS ===================
     ------------------------ ATOM    1 ------------------------
     Tr[ns(  1)] (up, down, total) =   4.96868  0.19557  5.16425
     Atomic magnetic moment for atom   1 =   4.77312
     SPIN  1
     eigenvalues:
       0.989  0.989  0.997  0.997  0.998
     eigenvectors (columns):
      -0.616  0.000 -0.000  0.708 -0.346
       0.754 -0.000 -0.000  0.657  0.003
       0.000  0.533 -0.846 -0.000  0.000
      -0.229  0.000 -0.000  0.259  0.938
       0.000  0.846  0.533  0.000 -0.000
     occupation matrix ns (before diag.):
       0.994  0.004 -0.000 -0.001  0.000
       0.004  0.992 -0.000  0.001  0.000
      -0.000 -0.000  0.994 -0.000 -0.004
      -0.001  0.001 -0.000  0.997 -0.000
       0.000  0.000 -0.004 -0.000  0.991
     SPIN  2
     eigenvalues:
       0.019  0.019  0.021  0.065  0.072
     eigenvectors (columns):
       0.838  0.000 -0.089 -0.000 -0.539
       0.545  0.000  0.186  0.000  0.817
       0.000 -0.836  0.000  0.549 -0.000
      -0.028  0.000  0.978 -0.000 -0.205
      -0.000  0.549 -0.000  0.836 -0.000
     occupation matrix ns (before diag.):
       0.034 -0.023  0.000  0.006  0.000
      -0.023  0.054 -0.000 -0.008  0.000
       0.000 -0.000  0.033 -0.000  0.021
       0.006 -0.008 -0.000  0.023 -0.000
       0.000  0.000  0.021 -0.000  0.051

     Number of occupied Hubbard levels =    5.1643

     HUBBARD ENERGY =    0.0369  (Ry)

     total cpu time spent up to now is       16.1 secs

     total energy              =   -1202.08428405 Ry
     estimated scf accuracy    <       4.23289053 Ry

     total magnetization       =     5.00 Bohr mag/cell
     absolute magnetization    =     5.00 Bohr mag/cell

     iteration #  2     ecut=   120.00 Ry     beta= 0.70
     Davidson diagonalization with overlap

---- Real-time Memory Report at c_bands before calling an iterative solver
           217 MiB given to the printing process from OS
           175 MiB allocation reported by mallinfo(arena+hblkhd)
        664166 MiB available memory on the node where the printing process lives
------------------
     ethr =  3.81E-03,  avg # of iterations =  2.0

     =================== HUBBARD OCCUPATIONS ===================
     ------------------------ ATOM    1 ------------------------
     Tr[ns(  1)] (up, down, total) =   4.94483  0.26314  5.20798
     Atomic magnetic moment for atom   1 =   4.68169
     SPIN  1
     eigenvalues:
       0.978  0.980  0.995  0.996  0.996
     eigenvectors (columns):
       0.587 -0.000  0.809  0.000 -0.017
      -0.775 -0.000  0.556  0.000 -0.300
      -0.000  0.518  0.000 -0.855 -0.000
       0.233  0.000 -0.190  0.000 -0.954
      -0.000  0.855 -0.000  0.518  0.000
     occupation matrix ns (before diag.):
       0.989  0.008 -0.000 -0.002  0.000
       0.008  0.985 -0.000  0.004  0.000
      -0.000 -0.000  0.991 -0.000 -0.007
      -0.002  0.004 -0.000  0.995 -0.000
       0.000  0.000 -0.007 -0.000  0.984
     SPIN  2
     eigenvalues:
       0.026  0.026  0.030  0.087  0.094
     eigenvectors (columns):
       0.827  0.000 -0.166 -0.000 -0.537
       0.558  0.000  0.136  0.000  0.818
       0.000 -0.838  0.000  0.546 -0.000
       0.063  0.000  0.977 -0.000 -0.205
      -0.000  0.546 -0.000  0.838 -0.000
     occupation matrix ns (before diag.):
       0.046 -0.030  0.000  0.007  0.000
      -0.030  0.072 -0.000 -0.011  0.000
       0.000 -0.000  0.044 -0.000  0.028
       0.007 -0.011 -0.000  0.033 -0.000
       0.000  0.000  0.028 -0.000  0.069

     Number of occupied Hubbard levels =    5.2080

     HUBBARD ENERGY =    0.0465  (Ry)

     total cpu time spent up to now is       26.7 secs

     total energy              =   -1202.87644945 Ry
     estimated scf accuracy    <       0.13146696 Ry

     total magnetization       =     5.00 Bohr mag/cell
     absolute magnetization    =     5.01 Bohr mag/cell

     iteration #  3     ecut=   120.00 Ry     beta= 0.70
     Davidson diagonalization with overlap

---- Real-time Memory Report at c_bands before calling an iterative solver
           218 MiB given to the printing process from OS
           176 MiB allocation reported by mallinfo(arena+hblkhd)
        664111 MiB available memory on the node where the printing process lives
------------------
     ethr =  1.18E-04,  avg # of iterations =  7.3

     =================== HUBBARD OCCUPATIONS ===================
     ------------------------ ATOM    1 ------------------------
     Tr[ns(  1)] (up, down, total) =   4.94385  0.24526  5.18911
     Atomic magnetic moment for atom   1 =   4.69859
     SPIN  1
     eigenvalues:
       0.977  0.980  0.995  0.996  0.996
     eigenvectors (columns):
       0.592 -0.000  0.806  0.000  0.017
      -0.774 -0.000  0.573  0.000 -0.270
      -0.000  0.523  0.000 -0.852 -0.000
       0.227  0.000 -0.147 -0.000 -0.963
      -0.000  0.852 -0.000  0.523  0.000
     occupation matrix ns (before diag.):
       0.989  0.008 -0.000 -0.002  0.000
       0.008  0.985 -0.000  0.003  0.000
      -0.000 -0.000  0.991 -0.000 -0.007
      -0.002  0.003 -0.000  0.995 -0.000
       0.000  0.000 -0.007 -0.000  0.984
     SPIN  2
     eigenvalues:
       0.023  0.024  0.028  0.082  0.088
     eigenvectors (columns):
       0.836  0.000 -0.119 -0.000 -0.536
       0.549  0.000  0.164  0.000  0.820
       0.000 -0.835  0.000  0.550 -0.000
       0.010  0.000  0.979 -0.000 -0.203
      -0.000  0.550 -0.000  0.835 -0.000
     occupation matrix ns (before diag.):
       0.042 -0.029  0.000  0.007  0.000
      -0.029  0.067 -0.000 -0.010  0.000
       0.000 -0.000  0.041 -0.000  0.027
       0.007 -0.010 -0.000  0.030 -0.000
       0.000  0.000  0.027 -0.000  0.064

     Number of occupied Hubbard levels =    5.1891

     HUBBARD ENERGY =    0.0485  (Ry)

     total cpu time spent up to now is       40.7 secs

     total energy              =   -1202.88851594 Ry
     estimated scf accuracy    <       0.03428840 Ry

     total magnetization       =     5.00 Bohr mag/cell
     absolute magnetization    =     5.02 Bohr mag/cell

     iteration #  4     ecut=   120.00 Ry     beta= 0.70
     Davidson diagonalization with overlap

---- Real-time Memory Report at c_bands before calling an iterative solver
           219 MiB given to the printing process from OS
           176 MiB allocation reported by mallinfo(arena+hblkhd)
        664076 MiB available memory on the node where the printing process lives
------------------
     ethr =  3.09E-05,  avg # of iterations =  2.0

     =================== HUBBARD OCCUPATIONS ===================
     ------------------------ ATOM    1 ------------------------
     Tr[ns(  1)] (up, down, total) =   4.94487  0.23325  5.17812
     Atomic magnetic moment for atom   1 =   4.71162
     SPIN  1
     eigenvalues:
       0.978  0.980  0.995  0.996  0.996
     eigenvectors (columns):
       0.593 -0.000  0.803  0.000  0.053
      -0.773 -0.000  0.587  0.000 -0.242
      -0.000  0.526  0.000 -0.851 -0.000
       0.226  0.000 -0.103 -0.000 -0.969
      -0.000  0.851 -0.000  0.526  0.000
     occupation matrix ns (before diag.):
       0.989  0.008 -0.000 -0.002  0.000
       0.008  0.985 -0.000  0.003  0.000
      -0.000 -0.000  0.991 -0.000 -0.007
      -0.002  0.003 -0.000  0.995 -0.000
       0.000  0.000 -0.007 -0.000  0.984
     SPIN  2
     eigenvalues:
       0.022  0.023  0.026  0.078  0.085
     eigenvectors (columns):
       0.838  0.000 -0.099 -0.000 -0.536
       0.545  0.000  0.177  0.000  0.819
       0.000 -0.834  0.000  0.552 -0.000
      -0.013  0.000  0.979 -0.000 -0.202
      -0.000  0.552 -0.000  0.834 -0.000
     occupation matrix ns (before diag.):
       0.040 -0.028  0.000  0.006  0.000
      -0.028  0.064 -0.000 -0.010  0.000
       0.000 -0.000  0.039 -0.000  0.026
       0.006 -0.010 -0.000  0.028 -0.000
       0.000  0.000  0.026 -0.000  0.061

     Number of occupied Hubbard levels =    5.1781

     HUBBARD ENERGY =    0.0473  (Ry)

     total cpu time spent up to now is       51.1 secs

     total energy              =   -1202.89049936 Ry
     estimated scf accuracy    <       0.00669582 Ry

     total magnetization       =     5.00 Bohr mag/cell
     absolute magnetization    =     5.03 Bohr mag/cell

     iteration #  5     ecut=   120.00 Ry     beta= 0.70
     Davidson diagonalization with overlap

---- Real-time Memory Report at c_bands before calling an iterative solver
           220 MiB given to the printing process from OS
           176 MiB allocation reported by mallinfo(arena+hblkhd)
        664035 MiB available memory on the node where the printing process lives
------------------
     ethr =  6.03E-06,  avg # of iterations =  5.4

     =================== HUBBARD OCCUPATIONS ===================
     ------------------------ ATOM    1 ------------------------
     Tr[ns(  1)] (up, down, total) =   4.94364  0.23465  5.17829
     Atomic magnetic moment for atom   1 =   4.70898
     SPIN  1
     eigenvalues:
       0.977  0.979  0.995  0.996  0.996
     eigenvectors (columns):
       0.593 -0.000  0.804  0.000  0.037
      -0.773 -0.000  0.582  0.000 -0.253
      -0.000  0.526  0.000 -0.851 -0.000
       0.225  0.000 -0.121 -0.000 -0.967
      -0.000  0.851 -0.000  0.526  0.000
     occupation matrix ns (before diag.):
       0.989  0.008 -0.000 -0.003  0.000
       0.008  0.984 -0.000  0.003  0.000
      -0.000 -0.000  0.991 -0.000 -0.007
      -0.003  0.003 -0.000  0.995 -0.000
       0.000  0.000 -0.007 -0.000  0.984
     SPIN  2
     eigenvalues:
       0.022  0.023  0.026  0.078  0.085
     eigenvectors (columns):
       0.838  0.000 -0.100 -0.000 -0.536
       0.545  0.000  0.176  0.000  0.820
       0.000 -0.834  0.000  0.552 -0.000
      -0.012  0.000  0.979 -0.000 -0.202
      -0.000  0.552 -0.000  0.834 -0.000
     occupation matrix ns (before diag.):
       0.040 -0.028  0.000  0.006  0.000
      -0.028  0.065 -0.000 -0.010  0.000
       0.000 -0.000  0.040 -0.000  0.026
       0.006 -0.010 -0.000  0.029 -0.000
       0.000  0.000  0.026 -0.000  0.061

     Number of occupied Hubbard levels =    5.1783

     HUBBARD ENERGY =    0.0466  (Ry)

     total cpu time spent up to now is       63.4 secs

     total energy              =   -1202.89136840 Ry
     estimated scf accuracy    <       0.00090207 Ry

     total magnetization       =     5.00 Bohr mag/cell
     absolute magnetization    =     5.03 Bohr mag/cell

     iteration #  6     ecut=   120.00 Ry     beta= 0.70
     Davidson diagonalization with overlap

---- Real-time Memory Report at c_bands before calling an iterative solver
           220 MiB given to the printing process from OS
           177 MiB allocation reported by mallinfo(arena+hblkhd)
        663987 MiB available memory on the node where the printing process lives
------------------
     ethr =  8.13E-07,  avg # of iterations =  3.9

     =================== HUBBARD OCCUPATIONS ===================
     ------------------------ ATOM    1 ------------------------
     Tr[ns(  1)] (up, down, total) =   4.94406  0.23659  5.18065
     Atomic magnetic moment for atom   1 =   4.70747
     SPIN  1
     eigenvalues:
       0.977  0.979  0.995  0.996  0.996
     eigenvectors (columns):
       0.594  0.000  0.803  0.000  0.045
      -0.772 -0.000  0.586  0.000 -0.247
      -0.000  0.526  0.000 -0.850 -0.000
       0.225  0.000 -0.112 -0.000 -0.968
      -0.000  0.850 -0.000  0.526  0.000
     occupation matrix ns (before diag.):
       0.989  0.008 -0.000 -0.002  0.000
       0.008  0.985 -0.000  0.003  0.000
      -0.000 -0.000  0.991 -0.000 -0.007
      -0.002  0.003 -0.000  0.995 -0.000
       0.000  0.000 -0.007 -0.000  0.984
     SPIN  2
     eigenvalues:
       0.023  0.023  0.027  0.079  0.086
     eigenvectors (columns):
       0.838  0.000 -0.101 -0.000 -0.536
       0.545  0.000  0.175  0.000  0.820
       0.000 -0.834  0.000  0.552 -0.000
      -0.012  0.000  0.979 -0.000 -0.202
      -0.000  0.552 -0.000  0.834 -0.000
     occupation matrix ns (before diag.):
       0.041 -0.028  0.000  0.006  0.000
      -0.028  0.065 -0.000 -0.010  0.000
       0.000 -0.000  0.040 -0.000  0.026
       0.006 -0.010 -0.000  0.029 -0.000
       0.000  0.000  0.026 -0.000  0.062

     Number of occupied Hubbard levels =    5.1806

     HUBBARD ENERGY =    0.0469  (Ry)

     total cpu time spent up to now is       74.8 secs

     total energy              =   -1202.89149974 Ry
     estimated scf accuracy    <       0.00012437 Ry

     total magnetization       =     5.00 Bohr mag/cell
     absolute magnetization    =     5.03 Bohr mag/cell

     iteration #  7     ecut=   120.00 Ry     beta= 0.70
     Davidson diagonalization with overlap

---- Real-time Memory Report at c_bands before calling an iterative solver
           221 MiB given to the printing process from OS
           177 MiB allocation reported by mallinfo(arena+hblkhd)
        663946 MiB available memory on the node where the printing process lives
------------------
     ethr =  1.12E-07,  avg # of iterations =  2.0

     =================== HUBBARD OCCUPATIONS ===================
     ------------------------ ATOM    1 ------------------------
     Tr[ns(  1)] (up, down, total) =   4.94405  0.23596  5.18001
     Atomic magnetic moment for atom   1 =   4.70809
     SPIN  1
     eigenvalues:
       0.977  0.979  0.995  0.996  0.996
     eigenvectors (columns):
       0.594  0.000  0.803  0.000  0.048
      -0.772 -0.000  0.586  0.000 -0.245
      -0.000  0.526  0.000 -0.850 -0.000
       0.225  0.000 -0.109 -0.000 -0.968
      -0.000  0.850 -0.000  0.526  0.000
     occupation matrix ns (before diag.):
       0.989  0.008 -0.000 -0.002  0.000
       0.008  0.985 -0.000  0.003  0.000
      -0.000 -0.000  0.991 -0.000 -0.007
      -0.002  0.003 -0.000  0.995 -0.000
       0.000  0.000 -0.007 -0.000  0.984
     SPIN  2
     eigenvalues:
       0.022  0.023  0.026  0.079  0.085
     eigenvectors (columns):
       0.838  0.000 -0.100 -0.000 -0.536
       0.545  0.000  0.176  0.000  0.820
       0.000 -0.834  0.000  0.552 -0.000
      -0.012  0.000  0.979 -0.000 -0.202
      -0.000  0.552 -0.000  0.834 -0.000
     occupation matrix ns (before diag.):
       0.041 -0.028  0.000  0.006  0.000
      -0.028  0.065 -0.000 -0.010  0.000
       0.000 -0.000  0.040 -0.000  0.026
       0.006 -0.010 -0.000  0.029 -0.000
       0.000  0.000  0.026 -0.000  0.062

     Number of occupied Hubbard levels =    5.1800

     HUBBARD ENERGY =    0.0471  (Ry)

     total cpu time spent up to now is       84.4 secs

     total energy              =   -1202.89150368 Ry
     estimated scf accuracy    <       0.00002364 Ry

     total magnetization       =     5.00 Bohr mag/cell
     absolute magnetization    =     5.03 Bohr mag/cell

     iteration #  8     ecut=   120.00 Ry     beta= 0.70
     Davidson diagonalization with overlap

---- Real-time Memory Report at c_bands before calling an iterative solver
           221 MiB given to the printing process from OS
           178 MiB allocation reported by mallinfo(arena+hblkhd)
        663907 MiB available memory on the node where the printing process lives
------------------
     ethr =  2.13E-08,  avg # of iterations =  3.9

     =================== HUBBARD OCCUPATIONS ===================
     ------------------------ ATOM    1 ------------------------
     Tr[ns(  1)] (up, down, total) =   4.94394  0.23536  5.17930
     Atomic magnetic moment for atom   1 =   4.70858
     SPIN  1
     eigenvalues:
       0.977  0.979  0.995  0.996  0.996
     eigenvectors (columns):
       0.594  0.000  0.803  0.000  0.050
      -0.772 -0.000  0.587  0.000 -0.244
      -0.000  0.526  0.000 -0.850 -0.000
       0.225  0.000 -0.107 -0.000 -0.968
      -0.000  0.850 -0.000  0.526  0.000
     occupation matrix ns (before diag.):
       0.989  0.008 -0.000 -0.002  0.000
       0.008  0.985 -0.000  0.003  0.000
      -0.000 -0.000  0.991 -0.000 -0.007
      -0.002  0.003 -0.000  0.995 -0.000
       0.000  0.000 -0.007 -0.000  0.984
     SPIN  2
     eigenvalues:
       0.022  0.023  0.026  0.079  0.085
     eigenvectors (columns):
       0.838  0.000 -0.100 -0.000 -0.536
       0.545  0.000  0.176  0.000  0.820
       0.000 -0.834  0.000  0.552 -0.000
      -0.012  0.000  0.979 -0.000 -0.202
      -0.000  0.552 -0.000  0.834 -0.000
     occupation matrix ns (before diag.):
       0.040 -0.028  0.000  0.006  0.000
      -0.028  0.065 -0.000 -0.010  0.000
       0.000 -0.000  0.040 -0.000  0.026
       0.006 -0.010 -0.000  0.029 -0.000
       0.000  0.000  0.026 -0.000  0.062

     Number of occupied Hubbard levels =    5.1793

     HUBBARD ENERGY =    0.0471  (Ry)

     total cpu time spent up to now is       96.4 secs

     total energy              =   -1202.89150702 Ry
     estimated scf accuracy    <       0.00001130 Ry

     total magnetization       =     5.00 Bohr mag/cell
     absolute magnetization    =     5.03 Bohr mag/cell

     iteration #  9     ecut=   120.00 Ry     beta= 0.70
     Davidson diagonalization with overlap

---- Real-time Memory Report at c_bands before calling an iterative solver
           222 MiB given to the printing process from OS
           178 MiB allocation reported by mallinfo(arena+hblkhd)
        663868 MiB available memory on the node where the printing process lives
------------------
     ethr =  1.02E-08,  avg # of iterations =  2.0

     =================== HUBBARD OCCUPATIONS ===================
     ------------------------ ATOM    1 ------------------------
     Tr[ns(  1)] (up, down, total) =   4.94380  0.23529  5.17909
     Atomic magnetic moment for atom   1 =   4.70851
     SPIN  1
     eigenvalues:
       0.977  0.979  0.995  0.996  0.996
     eigenvectors (columns):
       0.594  0.000  0.803  0.000  0.049
      -0.772 -0.000  0.587  0.000 -0.245
      -0.000  0.526  0.000 -0.850 -0.000
       0.225  0.000 -0.108 -0.000 -0.968
      -0.000  0.850 -0.000  0.526  0.000
     occupation matrix ns (before diag.):
       0.989  0.008 -0.000 -0.002  0.000
       0.008  0.985 -0.000  0.003  0.000
      -0.000 -0.000  0.991 -0.000 -0.007
      -0.002  0.003 -0.000  0.995 -0.000
       0.000  0.000 -0.007 -0.000  0.984
     SPIN  2
     eigenvalues:
       0.022  0.023  0.026  0.079  0.085
     eigenvectors (columns):
       0.838  0.000 -0.100 -0.000 -0.536
       0.545  0.000  0.175  0.000  0.820
       0.000 -0.834  0.000  0.552 -0.000
      -0.012  0.000  0.979 -0.000 -0.202
      -0.000  0.552 -0.000  0.834 -0.000
     occupation matrix ns (before diag.):
       0.040 -0.028  0.000  0.006  0.000
      -0.028  0.065 -0.000 -0.010  0.000
       0.000 -0.000  0.040 -0.000  0.026
       0.006 -0.010 -0.000  0.029 -0.000
       0.000  0.000  0.026 -0.000  0.062

     Number of occupied Hubbard levels =    5.1791

     HUBBARD ENERGY =    0.0470  (Ry)

     total cpu time spent up to now is      106.2 secs

     total energy              =   -1202.89150922 Ry
     estimated scf accuracy    <       0.00000032 Ry

     total magnetization       =     5.00 Bohr mag/cell
     absolute magnetization    =     5.03 Bohr mag/cell

     iteration # 10     ecut=   120.00 Ry     beta= 0.70
     Davidson diagonalization with overlap

---- Real-time Memory Report at c_bands before calling an iterative solver
           222 MiB given to the printing process from OS
           178 MiB allocation reported by mallinfo(arena+hblkhd)
        663829 MiB available memory on the node where the printing process lives
------------------
     ethr =  2.85E-10,  avg # of iterations =  4.6

     =================== HUBBARD OCCUPATIONS ===================
     ------------------------ ATOM    1 ------------------------
     Tr[ns(  1)] (up, down, total) =   4.94378  0.23523  5.17901
     Atomic magnetic moment for atom   1 =   4.70855
     SPIN  1
     eigenvalues:
       0.977  0.979  0.995  0.996  0.996
     eigenvectors (columns):
       0.594 -0.000  0.803  0.000  0.050
      -0.772 -0.000  0.587  0.000 -0.244
      -0.000  0.526  0.000 -0.850 -0.000
       0.225  0.000 -0.107 -0.000 -0.968
      -0.000  0.850 -0.000  0.526  0.000
     occupation matrix ns (before diag.):
       0.989  0.008 -0.000 -0.002  0.000
       0.008  0.985 -0.000  0.003  0.000
      -0.000 -0.000  0.991 -0.000 -0.007
      -0.002  0.003 -0.000  0.995 -0.000
       0.000  0.000 -0.007 -0.000  0.984
     SPIN  2
     eigenvalues:
       0.022  0.023  0.026  0.079  0.085
     eigenvectors (columns):
       0.838  0.000 -0.100 -0.000 -0.536
       0.545  0.000  0.175  0.000  0.820
       0.000 -0.834  0.000  0.552 -0.000
      -0.012  0.000  0.979 -0.000 -0.202
      -0.000  0.552 -0.000  0.834 -0.000
     occupation matrix ns (before diag.):
       0.040 -0.028  0.000  0.006  0.000
      -0.028  0.065 -0.000 -0.010  0.000
       0.000 -0.000  0.040 -0.000  0.026
       0.006 -0.010 -0.000  0.029 -0.000
       0.000  0.000  0.026 -0.000  0.062

     Number of occupied Hubbard levels =    5.1790

     HUBBARD ENERGY =    0.0470  (Ry)

     total cpu time spent up to now is      119.3 secs

     total energy              =   -1202.89150933 Ry
     estimated scf accuracy    <       0.00000003 Ry

     total magnetization       =     5.00 Bohr mag/cell
     absolute magnetization    =     5.03 Bohr mag/cell

     iteration # 11     ecut=   120.00 Ry     beta= 0.70
     Davidson diagonalization with overlap

---- Real-time Memory Report at c_bands before calling an iterative solver
           223 MiB given to the printing process from OS
           179 MiB allocation reported by mallinfo(arena+hblkhd)
        663814 MiB available memory on the node where the printing process lives
------------------
     ethr =  3.02E-11,  avg # of iterations =  2.7

     =================== HUBBARD OCCUPATIONS ===================
     ------------------------ ATOM    1 ------------------------
     Tr[ns(  1)] (up, down, total) =   4.94378  0.23523  5.17901
     Atomic magnetic moment for atom   1 =   4.70856
     SPIN  1
     eigenvalues:
       0.977  0.979  0.995  0.996  0.996
     eigenvectors (columns):
       0.594  0.000  0.803  0.000  0.050
      -0.772 -0.000  0.587  0.000 -0.244
      -0.000  0.526  0.000 -0.850 -0.000
       0.225  0.000 -0.107 -0.000 -0.968
      -0.000  0.850 -0.000  0.526  0.000
     occupation matrix ns (before diag.):
       0.989  0.008 -0.000 -0.002  0.000
       0.008  0.985 -0.000  0.003  0.000
      -0.000 -0.000  0.991 -0.000 -0.007
      -0.002  0.003 -0.000  0.995 -0.000
       0.000  0.000 -0.007 -0.000  0.984
     SPIN  2
     eigenvalues:
       0.022  0.023  0.026  0.079  0.085
     eigenvectors (columns):
       0.838  0.000 -0.100 -0.000 -0.536
       0.545  0.000  0.175  0.000  0.820
       0.000 -0.834  0.000  0.552 -0.000
      -0.012  0.000  0.979 -0.000 -0.202
      -0.000  0.552 -0.000  0.834 -0.000
     occupation matrix ns (before diag.):
       0.040 -0.028  0.000  0.006  0.000
      -0.028  0.065 -0.000 -0.010  0.000
       0.000 -0.000  0.040 -0.000  0.026
       0.006 -0.010 -0.000  0.029 -0.000
       0.000  0.000  0.026 -0.000  0.062

     Number of occupied Hubbard levels =    5.1790

     HUBBARD ENERGY =    0.0470  (Ry)

     total cpu time spent up to now is      129.5 secs

     total energy              =   -1202.89150933 Ry
     estimated scf accuracy    <          6.4E-09 Ry

     total magnetization       =     5.00 Bohr mag/cell
     absolute magnetization    =     5.03 Bohr mag/cell

     iteration # 12     ecut=   120.00 Ry     beta= 0.70
     Davidson diagonalization with overlap

---- Real-time Memory Report at c_bands before calling an iterative solver
           223 MiB given to the printing process from OS
           179 MiB allocation reported by mallinfo(arena+hblkhd)
        663809 MiB available memory on the node where the printing process lives
------------------
     ethr =  5.76E-12,  avg # of iterations =  2.9

     =================== HUBBARD OCCUPATIONS ===================
     ------------------------ ATOM    1 ------------------------
     Tr[ns(  1)] (up, down, total) =   4.94378  0.23522  5.17900
     Atomic magnetic moment for atom   1 =   4.70856
     SPIN  1
     eigenvalues:
       0.977  0.979  0.995  0.996  0.996
     eigenvectors (columns):
       0.594  0.000  0.803  0.000  0.050
      -0.772 -0.000  0.587  0.000 -0.244
      -0.000  0.526  0.000 -0.850 -0.000
       0.225  0.000 -0.107 -0.000 -0.968
      -0.000  0.850 -0.000  0.526  0.000
     occupation matrix ns (before diag.):
       0.989  0.008 -0.000 -0.002  0.000
       0.008  0.985 -0.000  0.003  0.000
      -0.000 -0.000  0.991 -0.000 -0.007
      -0.002  0.003 -0.000  0.995 -0.000
       0.000  0.000 -0.007 -0.000  0.984
     SPIN  2
     eigenvalues:
       0.022  0.023  0.026  0.079  0.085
     eigenvectors (columns):
       0.838  0.000 -0.100 -0.000 -0.536
       0.545  0.000  0.175  0.000  0.820
       0.000 -0.834  0.000  0.552 -0.000
      -0.012  0.000  0.979 -0.000 -0.202
      -0.000  0.552 -0.000  0.834 -0.000
     occupation matrix ns (before diag.):
       0.040 -0.028  0.000  0.006  0.000
      -0.028  0.065 -0.000 -0.010  0.000
       0.000 -0.000  0.040 -0.000  0.026
       0.006 -0.010 -0.000  0.029 -0.000
       0.000  0.000  0.026 -0.000  0.062

     Number of occupied Hubbard levels =    5.1790

     HUBBARD ENERGY =    0.0470  (Ry)
 
     Magnetic moment per site  (integrated on atomic sphere of radius R)
     atom   1 (R=0.184)  charge= 12.3184  magn=  4.1626
     atom   2 (R=0.177)  charge= 17.4929  magn=  0.0020
     atom   3 (R=0.156)  charge=  7.7008  magn=  0.0197
     atom   4 (R=0.156)  charge=  7.7069  magn=  0.0322
     atom   5 (R=0.156)  charge=  4.9914  magn=  0.0071
     atom   6 (R=0.156)  charge=  4.9914  magn=  0.0071
     atom   7 (R=0.156)  charge=  4.9933  magn=  0.0086
     atom   8 (R=0.156)  charge=  4.9933  magn=  0.0086
     atom   9 (R=0.156)  charge=  5.0149  magn=  0.0091
     atom  10 (R=0.156)  charge=  5.0149  magn=  0.0091
     atom  11 (R=0.156)  charge=  4.9904  magn=  0.0070
     atom  12 (R=0.156)  charge=  4.9904  magn=  0.0070

     total cpu time spent up to now is      140.5 secs

     End of self-consistent calculation

 ------ SPIN UP ------------


          k = 0.0833 0.0686 0.0807 ( 20076 PWs)   bands (ev):

  -113.3840 -69.5087 -67.7251 -67.7186 -67.7057 -64.8408 -64.7784 -38.5554
   -38.5473 -38.5333 -29.2288 -29.1898 -29.1544 -29.0905 -29.0698 -29.0329
    -8.8834  -7.7000  -7.5591  -7.4112  -7.2902  -7.1486  -6.9390  -6.7779
     3.0900   3.4010   3.5611   3.7404   3.8805   4.1926   4.3809   4.5627
     4.7872   4.9719   5.1301   5.3436   5.5629   5.7452   5.9636   6.0212
     6.1745   6.2657   6.5291   6.8755   7.0787   7.2150   7.4234   7.6062
     7.6942   8.0206   8.1798   8.3025   8.4609   8.5125   8.8643   8.9274
     9.3832   9.7280  12.7966  13.0502  13.1937  13.4206  14.0069  14.2735
    15.1924  16.5473  17.2156

     occupation numbers 
     1.0000   1.0000   1.0000   1.0000   1.0000   1.0000   1.0000   1.0000
     1.0000   1.0000   1.0000   1.0000   1.0000   1.0000   1.0000   1.0000
     1.0000   1.0000   1.0000   1.0000   1.0000   1.0000   1.0000   1.0000
     1.0000   1.0000   1.0000   1.0000   1.0000   1.0000   1.0000   1.0000
     1.0000   1.0000   1.0000   1.0000   1.0000   1.0000   1.0000   1.0000
     1.0000   1.0000   1.0000   1.0000   1.0000   1.0000   1.0000   1.0000
     1.0000   1.0000   1.0000   1.0000   1.0000   1.0000   1.0000   1.0000
     1.0000   1.0000   0.0000   0.0000   0.0000   0.0000   0.0000   0.0000
     0.0000   0.0000   0.0000

          k = 0.0833 0.0686 0.2396 ( 20075 PWs)   bands (ev):

  -113.3841 -69.5087 -67.7251 -67.7186 -67.7057 -64.8407 -64.7785 -38.5554
   -38.5473 -38.5333 -29.2271 -29.1997 -29.1472 -29.1053 -29.0556 -29.0323
    -8.6939  -7.7444  -7.6670  -7.5329  -7.2025  -7.1061  -6.9798  -6.8106
     3.2333   3.4316   3.5633   3.8828   3.9117   4.0343   4.2384   4.3814
     4.8437   4.9906   5.1542   5.3993   5.5515   5.6739   5.8751   6.0979
     6.2995   6.3950   6.6115   6.6996   6.8774   7.3027   7.3903   7.5469
     7.7761   7.9632   8.0391   8.3900   8.4642   8.5749   8.7004   8.9062
     9.6026   9.9410  12.8812  13.0023  13.0882  13.3499  13.9190  13.9975
    15.7756  16.4487  16.8505

     occupation numbers 
     1.0000   1.0000   1.0000   1.0000   1.0000   1.0000   1.0000   1.0000
     1.0000   1.0000   1.0000   1.0000   1.0000   1.0000   1.0000   1.0000
     1.0000   1.0000   1.0000   1.0000   1.0000   1.0000   1.0000   1.0000
     1.0000   1.0000   1.0000   1.0000   1.0000   1.0000   1.0000   1.0000
     1.0000   1.0000   1.0000   1.0000   1.0000   1.0000   1.0000   1.0000
     1.0000   1.0000   1.0000   1.0000   1.0000   1.0000   1.0000   1.0000
     1.0000   1.0000   1.0000   1.0000   1.0000   1.0000   1.0000   1.0000
     1.0000   1.0000   0.0000   0.0000   0.0000   0.0000   0.0000   0.0000
     0.0000   0.0000   0.0000

          k = 0.0833 0.0686 0.3985 ( 20074 PWs)   bands (ev):

  -113.3841 -69.5087 -67.7251 -67.7186 -67.7057 -64.8406 -64.7786 -38.5554
   -38.5473 -38.5333 -29.2219 -29.2121 -29.1374 -29.1190 -29.0443 -29.0335
    -8.3577  -7.9831  -7.7458  -7.6022  -7.1644  -7.1198  -6.9495  -6.8452
     3.1498   3.3989   3.6140   3.8025   4.0938   4.1720   4.3794   4.5041
     4.8157   4.9824   5.0911   5.3694   5.4335   5.6874   5.8511   5.9438
     6.1762   6.3633   6.6422   6.7747   6.9079   7.1081   7.3884   7.5484
     7.7834   7.9257   8.1211   8.2756   8.5473   8.6522   8.7285   8.8846
     9.7446  10.0113  12.7747  13.0329  13.2367  13.3183  13.6097  13.7144
    16.1354  16.6410  17.0904

     occupation numbers 
     1.0000   1.0000   1.0000   1.0000   1.0000   1.0000   1.0000   1.0000
     1.0000   1.0000   1.0000   1.0000   1.0000   1.0000   1.0000   1.0000
     1.0000   1.0000   1.0000   1.0000   1.0000   1.0000   1.0000   1.0000
     1.0000   1.0000   1.0000   1.0000   1.0000   1.0000   1.0000   1.0000
     1.0000   1.0000   1.0000   1.0000   1.0000   1.0000   1.0000   1.0000
     1.0000   1.0000   1.0000   1.0000   1.0000   1.0000   1.0000   1.0000
     1.0000   1.0000   1.0000   1.0000   1.0000   1.0000   1.0000   1.0000
     1.0000   1.0000   0.0000   0.0000   0.0000   0.0000   0.0000   0.0000
     0.0000   0.0000   0.0000

          k = 0.0834 0.0686-0.3961 ( 20079 PWs)   bands (ev):

  -113.3841 -69.5087 -67.7251 -67.7186 -67.7057 -64.8406 -64.7786 -38.5554
   -38.5473 -38.5333 -29.2219 -29.2121 -29.1374 -29.1189 -29.0443 -29.0335
    -8.3729  -7.9578  -7.7325  -7.5911  -7.1933  -7.1433  -6.9412  -6.8408
     3.1246   3.3809   3.6405   3.7999   4.0273   4.2623   4.4498   4.5767
     4.7570   4.9675   5.2040   5.2787   5.3938   5.6441   5.8302   6.0668
     6.1657   6.2929   6.6406   6.8197   6.9692   7.1087   7.3909   7.5648
     7.7799   7.8534   8.0405   8.2922   8.4557   8.5676   8.8141   8.9670
     9.7713   9.9191  12.7193  13.0611  13.2607  13.3212  13.4972  13.7419
    16.1586  16.7363  17.2966

     occupation numbers 
     1.0000   1.0000   1.0000   1.0000   1.0000   1.0000   1.0000   1.0000
     1.0000   1.0000   1.0000   1.0000   1.0000   1.0000   1.0000   1.0000
     1.0000   1.0000   1.0000   1.0000   1.0000   1.0000   1.0000   1.0000
     1.0000   1.0000   1.0000   1.0000   1.0000   1.0000   1.0000   1.0000
     1.0000   1.0000   1.0000   1.0000   1.0000   1.0000   1.0000   1.0000
     1.0000   1.0000   1.0000   1.0000   1.0000   1.0000   1.0000   1.0000
     1.0000   1.0000   1.0000   1.0000   1.0000   1.0000   1.0000   1.0000
     1.0000   1.0000   0.0000   0.0000   0.0000   0.0000   0.0000   0.0000
     0.0000   0.0000   0.0000

          k = 0.0834 0.0686-0.2372 ( 20070 PWs)   bands (ev):

  -113.3841 -69.5087 -67.7251 -67.7186 -67.7057 -64.8407 -64.7785 -38.5554
   -38.5473 -38.5333 -29.2271 -29.1997 -29.1471 -29.1053 -29.0556 -29.0324
    -8.7028  -7.7198  -7.6200  -7.4972  -7.2738  -7.1703  -6.9744  -6.7891
     3.1622   3.3329   3.6416   3.8703   3.9480   4.1797   4.3025   4.5167
     4.7354   4.9946   5.1972   5.2906   5.4853   5.7575   5.9411   6.0941
     6.2183   6.3294   6.5936   6.8562   7.0662   7.2382   7.3645   7.5708
     7.6615   7.8332   8.0223   8.2781   8.4155   8.5445   8.8048   8.9918
     9.6051   9.7891  12.7352  13.0460  13.0914  13.3961  13.8088  13.9661
    15.7860  16.8090  17.1835

     occupation numbers 
     1.0000   1.0000   1.0000   1.0000   1.0000   1.0000   1.0000   1.0000
     1.0000   1.0000   1.0000   1.0000   1.0000   1.0000   1.0000   1.0000
     1.0000   1.0000   1.0000   1.0000   1.0000   1.0000   1.0000   1.0000
     1.0000   1.0000   1.0000   1.0000   1.0000   1.0000   1.0000   1.0000
     1.0000   1.0000   1.0000   1.0000   1.0000   1.0000   1.0000   1.0000
     1.0000   1.0000   1.0000   1.0000   1.0000   1.0000   1.0000   1.0000
     1.0000   1.0000   1.0000   1.0000   1.0000   1.0000   1.0000   1.0000
     1.0000   1.0000   0.0000   0.0000   0.0000   0.0000   0.0000   0.0000
     0.0000   0.0000   0.0000

          k = 0.0833 0.0686-0.0783 ( 20092 PWs)   bands (ev):

  -113.3840 -69.5087 -67.7251 -67.7186 -67.7057 -64.8408 -64.7784 -38.5554
   -38.5473 -38.5333 -29.2288 -29.1898 -29.1543 -29.0906 -29.0697 -29.0330
    -8.8863  -7.6914  -7.4974  -7.4247  -7.2916  -7.2211  -6.9374  -6.7645
     3.0522   3.3799   3.5255   3.7677   3.9607   4.2367   4.4741   4.5734
     4.7524   4.9738   5.1100   5.2858   5.4894   5.8122   5.9357   6.0930
     6.1199   6.2971   6.5877   6.8990   7.0566   7.2273   7.4622   7.5377
     7.6829   7.9292   8.0922   8.3072   8.4532   8.6180   8.8383   8.9757
     9.3564   9.6592  12.7879  13.0107  13.1470  13.4473  14.0393  14.1874
    15.2366  16.7696  17.4541

     occupation numbers 
     1.0000   1.0000   1.0000   1.0000   1.0000   1.0000   1.0000   1.0000
     1.0000   1.0000   1.0000   1.0000   1.0000   1.0000   1.0000   1.0000
     1.0000   1.0000   1.0000   1.0000   1.0000   1.0000   1.0000   1.0000
     1.0000   1.0000   1.0000   1.0000   1.0000   1.0000   1.0000   1.0000
     1.0000   1.0000   1.0000   1.0000   1.0000   1.0000   1.0000   1.0000
     1.0000   1.0000   1.0000   1.0000   1.0000   1.0000   1.0000   1.0000
     1.0000   1.0000   1.0000   1.0000   1.0000   1.0000   1.0000   1.0000
     1.0000   1.0000   0.0000   0.0000   0.0000   0.0000   0.0000   0.0000
     0.0000   0.0000   0.0000

          k = 0.0833 0.2059 0.0807 ( 20097 PWs)   bands (ev):

  -113.3840 -69.5087 -67.7251 -67.7186 -67.7057 -64.8408 -64.7784 -38.5554
   -38.5473 -38.5333 -29.2286 -29.1889 -29.1541 -29.0909 -29.0707 -29.0332
    -8.7897  -7.8078  -7.6147  -7.3830  -7.3091  -7.1442  -6.9455  -6.7386
     3.2395   3.5202   3.6599   3.7665   3.8961   4.1846   4.4548   4.5833
     4.8057   4.8594   5.0129   5.2585   5.4645   5.6620   5.8749   5.9601
     6.1010   6.3240   6.6520   6.9016   6.9858   7.2133   7.4291   7.5048
     7.7354   7.9231   8.1062   8.3192   8.4705   8.5677   8.8161   8.9411
     9.5370   9.7714  12.6650  12.9496  13.3011  13.6167  13.9814  14.1908
    15.6291  16.6469  17.0401

     occupation numbers 
     1.0000   1.0000   1.0000   1.0000   1.0000   1.0000   1.0000   1.0000
     1.0000   1.0000   1.0000   1.0000   1.0000   1.0000   1.0000   1.0000
     1.0000   1.0000   1.0000   1.0000   1.0000   1.0000   1.0000   1.0000
     1.0000   1.0000   1.0000   1.0000   1.0000   1.0000   1.0000   1.0000
     1.0000   1.0000   1.0000   1.0000   1.0000   1.0000   1.0000   1.0000
     1.0000   1.0000   1.0000   1.0000   1.0000   1.0000   1.0000   1.0000
     1.0000   1.0000   1.0000   1.0000   1.0000   1.0000   1.0000   1.0000
     1.0000   1.0000   0.0000   0.0000   0.0000   0.0000   0.0000   0.0000
     0.0000   0.0000   0.0000

          k = 0.0833 0.2059 0.2396 ( 20069 PWs)   bands (ev):

  -113.3841 -69.5087 -67.7251 -67.7186 -67.7057 -64.8406 -64.7785 -38.5554
   -38.5473 -38.5333 -29.2275 -29.1997 -29.1469 -29.1057 -29.0558 -29.0319
    -8.6141  -7.8535  -7.6646  -7.4618  -7.2367  -7.1202  -7.0398  -6.7711
     3.3137   3.4564   3.6735   3.8652   3.9650   4.1049   4.4021   4.5305
     4.8391   4.8798   5.1237   5.3118   5.4635   5.5788   5.8101   5.9114
     6.1435   6.3850   6.6661   6.7975   6.8526   7.2562   7.3724   7.5590
     7.7472   7.8723   8.1154   8.3246   8.4248   8.5459   8.7775   8.9213
     9.6552   9.9644  12.6807  13.0816  13.1799  13.5680  13.8338  13.9505
    16.0280  16.6037  16.8465

     occupation numbers 
     1.0000   1.0000   1.0000   1.0000   1.0000   1.0000   1.0000   1.0000
     1.0000   1.0000   1.0000   1.0000   1.0000   1.0000   1.0000   1.0000
     1.0000   1.0000   1.0000   1.0000   1.0000   1.0000   1.0000   1.0000
     1.0000   1.0000   1.0000   1.0000   1.0000   1.0000   1.0000   1.0000
     1.0000   1.0000   1.0000   1.0000   1.0000   1.0000   1.0000   1.0000
     1.0000   1.0000   1.0000   1.0000   1.0000   1.0000   1.0000   1.0000
     1.0000   1.0000   1.0000   1.0000   1.0000   1.0000   1.0000   1.0000
     1.0000   1.0000   0.0000   0.0000   0.0000   0.0000   0.0000   0.0000
     0.0000   0.0000   0.0000

          k = 0.0833 0.2059 0.3985 ( 20064 PWs)   bands (ev):

  -113.3841 -69.5087 -67.7251 -67.7186 -67.7057 -64.8405 -64.7786 -38.5554
   -38.5473 -38.5333 -29.2228 -29.2128 -29.1374 -29.1189 -29.0438 -29.0327
    -8.3095  -8.0052  -7.6940  -7.5803  -7.2183  -7.1849  -6.9618  -6.8400
     3.2451   3.5124   3.6244   3.7284   4.1062   4.2889   4.5714   4.6083
     4.8336   4.9473   5.0480   5.3081   5.4237   5.6156   5.7055   5.9427
     6.1022   6.2344   6.5859   6.7415   6.9797   7.0541   7.3931   7.4606
     7.6708   7.9360   8.0536   8.3882   8.5261   8.6256   8.7235   8.9428
     9.7334  10.0425  12.7083  13.0376  13.3098  13.4693  13.5901  13.6787
    16.2742  16.7157  17.1510

     occupation numbers 
     1.0000   1.0000   1.0000   1.0000   1.0000   1.0000   1.0000   1.0000
     1.0000   1.0000   1.0000   1.0000   1.0000   1.0000   1.0000   1.0000
     1.0000   1.0000   1.0000   1.0000   1.0000   1.0000   1.0000   1.0000
     1.0000   1.0000   1.0000   1.0000   1.0000   1.0000   1.0000   1.0000
     1.0000   1.0000   1.0000   1.0000   1.0000   1.0000   1.0000   1.0000
     1.0000   1.0000   1.0000   1.0000   1.0000   1.0000   1.0000   1.0000
     1.0000   1.0000   1.0000   1.0000   1.0000   1.0000   1.0000   1.0000
     1.0000   1.0000   0.0000   0.0000   0.0000   0.0000   0.0000   0.0000
     0.0000   0.0000   0.0000

          k = 0.0834 0.2059-0.3961 ( 20062 PWs)   bands (ev):

  -113.3841 -69.5087 -67.7251 -67.7186 -67.7057 -64.8405 -64.7786 -38.5554
   -38.5473 -38.5333 -29.2227 -29.2128 -29.1374 -29.1189 -29.0438 -29.0327
    -8.3187  -7.9818  -7.6949  -7.5596  -7.2908  -7.1390  -6.9963  -6.8176
     3.2484   3.5084   3.5884   3.8074   4.1106   4.2957   4.5055   4.6352
     4.7790   5.0007   5.1173   5.3108   5.4468   5.5869   5.7024   5.9210
     6.0274   6.3121   6.5740   6.6773   6.9747   7.1125   7.4489   7.5294
     7.6690   7.8858   8.0380   8.3297   8.4573   8.6207   8.7563   8.9915
     9.7338   9.9644  12.6359  13.0925  13.3090  13.3893  13.5535  13.6999
    16.3505  16.7978  17.2335

     occupation numbers 
     1.0000   1.0000   1.0000   1.0000   1.0000   1.0000   1.0000   1.0000
     1.0000   1.0000   1.0000   1.0000   1.0000   1.0000   1.0000   1.0000
     1.0000   1.0000   1.0000   1.0000   1.0000   1.0000   1.0000   1.0000
     1.0000   1.0000   1.0000   1.0000   1.0000   1.0000   1.0000   1.0000
     1.0000   1.0000   1.0000   1.0000   1.0000   1.0000   1.0000   1.0000
     1.0000   1.0000   1.0000   1.0000   1.0000   1.0000   1.0000   1.0000
     1.0000   1.0000   1.0000   1.0000   1.0000   1.0000   1.0000   1.0000
     1.0000   1.0000   0.0000   0.0000   0.0000   0.0000   0.0000   0.0000
     0.0000   0.0000   0.0000

          k = 0.0834 0.2059-0.2372 ( 20064 PWs)   bands (ev):

  -113.3841 -69.5087 -67.7251 -67.7186 -67.7057 -64.8406 -64.7785 -38.5554
   -38.5473 -38.5333 -29.2274 -29.1998 -29.1467 -29.1057 -29.0557 -29.0320
    -8.6191  -7.8108  -7.6499  -7.4280  -7.3238  -7.1707  -7.0177  -6.7508
     3.3119   3.4543   3.6078   3.8881   4.0602   4.1737   4.3974   4.5852
     4.7498   4.9285   5.1225   5.2489   5.4662   5.6180   5.8031   5.9483
     6.1310   6.2919   6.5925   6.8012   7.0078   7.2948   7.4711   7.5772
     7.6939   7.8363   8.0068   8.3466   8.3803   8.5372   8.8028   8.9780
     9.5565   9.8580  12.5946  13.1151  13.1470  13.5435  13.7229  13.9312
    16.1907  16.7460  17.0902

     occupation numbers 
     1.0000   1.0000   1.0000   1.0000   1.0000   1.0000   1.0000   1.0000
     1.0000   1.0000   1.0000   1.0000   1.0000   1.0000   1.0000   1.0000
     1.0000   1.0000   1.0000   1.0000   1.0000   1.0000   1.0000   1.0000
     1.0000   1.0000   1.0000   1.0000   1.0000   1.0000   1.0000   1.0000
     1.0000   1.0000   1.0000   1.0000   1.0000   1.0000   1.0000   1.0000
     1.0000   1.0000   1.0000   1.0000   1.0000   1.0000   1.0000   1.0000
     1.0000   1.0000   1.0000   1.0000   1.0000   1.0000   1.0000   1.0000
     1.0000   1.0000   0.0000   0.0000   0.0000   0.0000   0.0000   0.0000
     0.0000   0.0000   0.0000

          k = 0.0833 0.2059-0.0783 ( 20080 PWs)   bands (ev):

  -113.3840 -69.5087 -67.7251 -67.7186 -67.7057 -64.8408 -64.7784 -38.5554
   -38.5473 -38.5333 -29.2285 -29.1890 -29.1540 -29.0911 -29.0706 -29.0332
    -8.7915  -7.7947  -7.5624  -7.4387  -7.3056  -7.1769  -6.9400  -6.7273
     3.2210   3.5203   3.6203   3.7948   3.9519   4.2635   4.4274   4.5596
     4.7559   4.8917   5.0914   5.2280   5.4309   5.6631   5.7831   5.9937
     6.1477   6.3243   6.6719   6.8898   7.0607   7.1879   7.3905   7.5036
     7.6481   8.0101   8.1414   8.2358   8.5101   8.6110   8.8147   8.9517
     9.4060   9.7549  12.6523  12.9731  13.1959  13.6405  14.0032  14.1049
    15.7154  16.8539  17.0352

     occupation numbers 
     1.0000   1.0000   1.0000   1.0000   1.0000   1.0000   1.0000   1.0000
     1.0000   1.0000   1.0000   1.0000   1.0000   1.0000   1.0000   1.0000
     1.0000   1.0000   1.0000   1.0000   1.0000   1.0000   1.0000   1.0000
     1.0000   1.0000   1.0000   1.0000   1.0000   1.0000   1.0000   1.0000
     1.0000   1.0000   1.0000   1.0000   1.0000   1.0000   1.0000   1.0000
     1.0000   1.0000   1.0000   1.0000   1.0000   1.0000   1.0000   1.0000
     1.0000   1.0000   1.0000   1.0000   1.0000   1.0000   1.0000   1.0000
     1.0000   1.0000   0.0000   0.0000   0.0000   0.0000   0.0000   0.0000
     0.0000   0.0000   0.0000

          k = 0.0833 0.3432 0.0807 ( 20088 PWs)   bands (ev):

  -113.3840 -69.5087 -67.7251 -67.7186 -67.7057 -64.8407 -64.7784 -38.5554
   -38.5473 -38.5333 -29.2283 -29.1881 -29.1539 -29.0914 -29.0716 -29.0335
    -8.6618  -7.9909  -7.5985  -7.3730  -7.3221  -7.1566  -6.9475  -6.7053
     3.4748   3.6395   3.7114   3.8493   3.9456   4.1480   4.3767   4.5422
     4.6435   4.9336   4.9675   5.2332   5.3505   5.5889   5.8578   6.0075
     6.1684   6.2994   6.6076   6.7847   6.8847   7.1908   7.3022   7.4277
     7.7650   7.8971   8.2343   8.3462   8.4906   8.6387   8.7514   8.8816
     9.6621   9.8374  12.4670  13.1053  13.4538  13.5267  13.9716  14.1611
    16.2081  16.7336  16.8429

     occupation numbers 
     1.0000   1.0000   1.0000   1.0000   1.0000   1.0000   1.0000   1.0000
     1.0000   1.0000   1.0000   1.0000   1.0000   1.0000   1.0000   1.0000
     1.0000   1.0000   1.0000   1.0000   1.0000   1.0000   1.0000   1.0000
     1.0000   1.0000   1.0000   1.0000   1.0000   1.0000   1.0000   1.0000
     1.0000   1.0000   1.0000   1.0000   1.0000   1.0000   1.0000   1.0000
     1.0000   1.0000   1.0000   1.0000   1.0000   1.0000   1.0000   1.0000
     1.0000   1.0000   1.0000   1.0000   1.0000   1.0000   1.0000   1.0000
     1.0000   1.0000   0.0000   0.0000   0.0000   0.0000   0.0000   0.0000
     0.0000   0.0000   0.0000

          k = 0.0833 0.3432 0.2396 ( 20075 PWs)   bands (ev):

  -113.3841 -69.5087 -67.7251 -67.7186 -67.7057 -64.8406 -64.7785 -38.5554
   -38.5473 -38.5333 -29.2278 -29.1998 -29.1465 -29.1061 -29.0558 -29.0316
    -8.5058  -7.9901  -7.6354  -7.4024  -7.2686  -7.1779  -7.0627  -6.7434
     3.3595   3.5405   3.7404   3.8533   4.1047   4.2508   4.4200   4.6369
     4.8184   4.9192   5.0754   5.1951   5.3349   5.5921   5.7245   5.8821
     6.0545   6.1808   6.5936   6.6389   6.9714   7.1410   7.4018   7.5544
     7.7682   7.9251   8.2095   8.2705   8.3540   8.6090   8.7484   8.9237
     9.7529   9.9337  12.5539  13.1975  13.3424  13.5700  13.6993  14.0013
    16.2933  16.6940  16.9797

     occupation numbers 
     1.0000   1.0000   1.0000   1.0000   1.0000   1.0000   1.0000   1.0000
     1.0000   1.0000   1.0000   1.0000   1.0000   1.0000   1.0000   1.0000
     1.0000   1.0000   1.0000   1.0000   1.0000   1.0000   1.0000   1.0000
     1.0000   1.0000   1.0000   1.0000   1.0000   1.0000   1.0000   1.0000
     1.0000   1.0000   1.0000   1.0000   1.0000   1.0000   1.0000   1.0000
     1.0000   1.0000   1.0000   1.0000   1.0000   1.0000   1.0000   1.0000
     1.0000   1.0000   1.0000   1.0000   1.0000   1.0000   1.0000   1.0000
     1.0000   1.0000   0.0000   0.0000   0.0000   0.0000   0.0000   0.0000
     0.0000   0.0000   0.0000

          k = 0.0833 0.3432 0.3985 ( 20048 PWs)   bands (ev):

  -113.3841 -69.5087 -67.7251 -67.7186 -67.7057 -64.8405 -64.7786 -38.5554
   -38.5473 -38.5333 -29.2236 -29.2136 -29.1373 -29.1188 -29.0432 -29.0319
    -8.2471  -8.0484  -7.6018  -7.5284  -7.3376  -7.2672  -6.9571  -6.8327
     3.3088   3.5565   3.6744   3.7705   4.2160   4.4632   4.5359   4.6562
     4.7658   5.0704   5.0753   5.2350   5.3746   5.5993   5.7002   5.8616
     5.9999   6.2128   6.4210   6.6445   6.7358   7.1034   7.3361   7.4507
     7.6638   7.9038   8.2874   8.3210   8.4264   8.6551   8.7685   8.9753
     9.7227  10.0514  12.6643  13.0940  13.3203  13.4730  13.5741  13.7814
    16.3067  16.8148  17.3668

     occupation numbers 
     1.0000   1.0000   1.0000   1.0000   1.0000   1.0000   1.0000   1.0000
     1.0000   1.0000   1.0000   1.0000   1.0000   1.0000   1.0000   1.0000
     1.0000   1.0000   1.0000   1.0000   1.0000   1.0000   1.0000   1.0000
     1.0000   1.0000   1.0000   1.0000   1.0000   1.0000   1.0000   1.0000
     1.0000   1.0000   1.0000   1.0000   1.0000   1.0000   1.0000   1.0000
     1.0000   1.0000   1.0000   1.0000   1.0000   1.0000   1.0000   1.0000
     1.0000   1.0000   1.0000   1.0000   1.0000   1.0000   1.0000   1.0000
     1.0000   1.0000   0.0000   0.0000   0.0000   0.0000   0.0000   0.0000
     0.0000   0.0000   0.0000

          k = 0.0834 0.3432-0.3961 ( 20068 PWs)   bands (ev):

  -113.3841 -69.5087 -67.7251 -67.7186 -67.7057 -64.8405 -64.7786 -38.5554
   -38.5473 -38.5333 -29.2235 -29.2137 -29.1373 -29.1188 -29.0432 -29.0319
    -8.2555  -8.0060  -7.6593  -7.4980  -7.3771  -7.2168  -7.0097  -6.8020
     3.3155   3.6174   3.7040   3.7765   4.2399   4.3451   4.5128   4.6109
     4.7627   5.0429   5.0940   5.3267   5.4165   5.5343   5.6796   5.8429
     6.0641   6.2556   6.4268   6.5466   6.8215   7.0808   7.3068   7.5191
     7.7003   7.8692   8.2516   8.3185   8.4340   8.6217   8.8136   9.0152
     9.6765   9.9822  12.5869  13.0389  13.3661  13.4679  13.5982  13.7124
    16.3308  17.0035  17.3155

     occupation numbers 
     1.0000   1.0000   1.0000   1.0000   1.0000   1.0000   1.0000   1.0000
     1.0000   1.0000   1.0000   1.0000   1.0000   1.0000   1.0000   1.0000
     1.0000   1.0000   1.0000   1.0000   1.0000   1.0000   1.0000   1.0000
     1.0000   1.0000   1.0000   1.0000   1.0000   1.0000   1.0000   1.0000
     1.0000   1.0000   1.0000   1.0000   1.0000   1.0000   1.0000   1.0000
     1.0000   1.0000   1.0000   1.0000   1.0000   1.0000   1.0000   1.0000
     1.0000   1.0000   1.0000   1.0000   1.0000   1.0000   1.0000   1.0000
     1.0000   1.0000   0.0000   0.0000   0.0000   0.0000   0.0000   0.0000
     0.0000   0.0000   0.0000

          k = 0.0834 0.3432-0.2372 ( 20067 PWs)   bands (ev):

  -113.3841 -69.5087 -67.7251 -67.7186 -67.7057 -64.8406 -64.7785 -38.5554
   -38.5473 -38.5333 -29.2277 -29.1999 -29.1464 -29.1061 -29.0558 -29.0317
    -8.5070  -7.9373  -7.6603  -7.4071  -7.3083  -7.1972  -7.0543  -6.7228
     3.4284   3.6061   3.6827   3.9634   4.0575   4.2001   4.3550   4.6673
     4.8155   4.9027   5.0176   5.1718   5.4597   5.4834   5.6973   5.8535
     6.1421   6.3132   6.4938   6.5777   7.0918   7.2174   7.4574   7.5763
     7.7345   7.8312   8.1098   8.3462   8.3921   8.5208   8.8156   9.0462
     9.5739   9.8249  12.4928  13.1707  13.3056  13.5305  13.6305  13.9550
    16.4778  16.8204  17.1163

     occupation numbers 
     1.0000   1.0000   1.0000   1.0000   1.0000   1.0000   1.0000   1.0000
     1.0000   1.0000   1.0000   1.0000   1.0000   1.0000   1.0000   1.0000
     1.0000   1.0000   1.0000   1.0000   1.0000   1.0000   1.0000   1.0000
     1.0000   1.0000   1.0000   1.0000   1.0000   1.0000   1.0000   1.0000
     1.0000   1.0000   1.0000   1.0000   1.0000   1.0000   1.0000   1.0000
     1.0000   1.0000   1.0000   1.0000   1.0000   1.0000   1.0000   1.0000
     1.0000   1.0000   1.0000   1.0000   1.0000   1.0000   1.0000   1.0000
     1.0000   1.0000   0.0000   0.0000   0.0000   0.0000   0.0000   0.0000
     0.0000   0.0000   0.0000

          k = 0.0833 0.3432-0.0783 ( 20061 PWs)   bands (ev):

  -113.3840 -69.5087 -67.7251 -67.7186 -67.7057 -64.8407 -64.7784 -38.5554
   -38.5473 -38.5333 -29.2283 -29.1881 -29.1538 -29.0916 -29.0715 -29.0335
    -8.6620  -7.9754  -7.5567  -7.4468  -7.3209  -7.1610  -6.9419  -6.6950
     3.4931   3.7090   3.7244   3.7833   3.9638   4.1897   4.3439   4.4985
     4.6096   4.8807   5.0369   5.2505   5.4101   5.5152   5.8144   6.0247
     6.2176   6.3361   6.5643   6.6950   6.9904   7.2188   7.3520   7.5211
     7.5549   7.9682   8.1895   8.4074   8.4826   8.5848   8.7873   8.9567
     9.5338   9.7953  12.4761  13.1145  13.3137  13.5823  13.9343  14.1176
    16.3732  16.7258  16.9081

     occupation numbers 
     1.0000   1.0000   1.0000   1.0000   1.0000   1.0000   1.0000   1.0000
     1.0000   1.0000   1.0000   1.0000   1.0000   1.0000   1.0000   1.0000
     1.0000   1.0000   1.0000   1.0000   1.0000   1.0000   1.0000   1.0000
     1.0000   1.0000   1.0000   1.0000   1.0000   1.0000   1.0000   1.0000
     1.0000   1.0000   1.0000   1.0000   1.0000   1.0000   1.0000   1.0000
     1.0000   1.0000   1.0000   1.0000   1.0000   1.0000   1.0000   1.0000
     1.0000   1.0000   1.0000   1.0000   1.0000   1.0000   1.0000   1.0000
     1.0000   1.0000   0.0000   0.0000   0.0000   0.0000   0.0000   0.0000
     0.0000   0.0000   0.0000

          k = 0.2500 0.0686 0.0831 ( 20053 PWs)   bands (ev):

  -113.3840 -69.5087 -67.7251 -67.7186 -67.7057 -64.8408 -64.7784 -38.5554
   -38.5473 -38.5333 -29.2290 -29.1899 -29.1551 -29.0910 -29.0699 -29.0330
    -8.7544  -7.7234  -7.6336  -7.4471  -7.2684  -7.0786  -6.9625  -6.8786
     3.2976   3.4682   3.6099   3.7536   3.8638   4.1574   4.3511   4.6898
     4.8553   4.9135   5.0595   5.2549   5.3750   5.5589   5.7205   5.9886
     6.2569   6.4896   6.6644   6.8083   7.0145   7.1988   7.4627   7.5976
     7.7476   7.8389   8.1248   8.3849   8.5006   8.6699   8.7803   9.0596
     9.3568   9.8413  12.8773  12.9807  13.1710  13.4171  14.1023  14.2134
    15.6097  16.4185  17.0450

     occupation numbers 
     1.0000   1.0000   1.0000   1.0000   1.0000   1.0000   1.0000   1.0000
     1.0000   1.0000   1.0000   1.0000   1.0000   1.0000   1.0000   1.0000
     1.0000   1.0000   1.0000   1.0000   1.0000   1.0000   1.0000   1.0000
     1.0000   1.0000   1.0000   1.0000   1.0000   1.0000   1.0000   1.0000
     1.0000   1.0000   1.0000   1.0000   1.0000   1.0000   1.0000   1.0000
     1.0000   1.0000   1.0000   1.0000   1.0000   1.0000   1.0000   1.0000
     1.0000   1.0000   1.0000   1.0000   1.0000   1.0000   1.0000   1.0000
     1.0000   1.0000   0.0000   0.0000   0.0000   0.0000   0.0000   0.0000
     0.0000   0.0000   0.0000

          k = 0.2500 0.0686 0.2420 ( 20064 PWs)   bands (ev):

  -113.3841 -69.5087 -67.7251 -67.7186 -67.7057 -64.8406 -64.7785 -38.5554
   -38.5473 -38.5333 -29.2273 -29.1998 -29.1478 -29.1057 -29.0557 -29.0323
    -8.5714  -7.7618  -7.6895  -7.5553  -7.2416  -7.1048  -6.9849  -6.8543
     3.3762   3.5335   3.6684   3.7839   3.9427   4.0795   4.2662   4.4461
     4.7875   4.8644   5.1013   5.2882   5.4080   5.4776   5.6731   6.2106
     6.3909   6.5149   6.5919   6.6766   6.7909   7.3280   7.4623   7.5925
     7.7434   7.9633   8.0636   8.3319   8.5134   8.7356   8.8037   8.9896
     9.4520  10.0148  12.8197  13.0895  13.1418  13.4547  13.9809  14.0749
    15.8580  16.4128  16.7138

     occupation numbers 
     1.0000   1.0000   1.0000   1.0000   1.0000   1.0000   1.0000   1.0000
     1.0000   1.0000   1.0000   1.0000   1.0000   1.0000   1.0000   1.0000
     1.0000   1.0000   1.0000   1.0000   1.0000   1.0000   1.0000   1.0000
     1.0000   1.0000   1.0000   1.0000   1.0000   1.0000   1.0000   1.0000
     1.0000   1.0000   1.0000   1.0000   1.0000   1.0000   1.0000   1.0000
     1.0000   1.0000   1.0000   1.0000   1.0000   1.0000   1.0000   1.0000
     1.0000   1.0000   1.0000   1.0000   1.0000   1.0000   1.0000   1.0000
     1.0000   1.0000   0.0000   0.0000   0.0000   0.0000   0.0000   0.0000
     0.0000   0.0000   0.0000

          k = 0.2499 0.0686 0.4009 ( 20057 PWs)   bands (ev):

  -113.3841 -69.5087 -67.7251 -67.7186 -67.7057 -64.8405 -64.7787 -38.5554
   -38.5473 -38.5333 -29.2220 -29.2121 -29.1379 -29.1194 -29.0444 -29.0335
    -8.2521  -7.9316  -7.7519  -7.6160  -7.2889  -7.1594  -6.9531  -6.8363
     3.2884   3.5356   3.6518   3.8189   4.0011   4.2170   4.3012   4.3961
     4.8979   4.9461   5.1586   5.2759   5.3355   5.5819   5.8438   5.9666
     6.1153   6.2976   6.5810   6.7013   7.0164   7.1349   7.3256   7.4743
     7.7322   8.0911   8.1837   8.4517   8.4898   8.7004   8.9095   8.9661
     9.5467   9.9837  12.7757  13.0384  13.3631  13.4887  13.7087  13.7830
    16.0054  16.5895  17.1024

     occupation numbers 
     1.0000   1.0000   1.0000   1.0000   1.0000   1.0000   1.0000   1.0000
     1.0000   1.0000   1.0000   1.0000   1.0000   1.0000   1.0000   1.0000
     1.0000   1.0000   1.0000   1.0000   1.0000   1.0000   1.0000   1.0000
     1.0000   1.0000   1.0000   1.0000   1.0000   1.0000   1.0000   1.0000
     1.0000   1.0000   1.0000   1.0000   1.0000   1.0000   1.0000   1.0000
     1.0000   1.0000   1.0000   1.0000   1.0000   1.0000   1.0000   1.0000
     1.0000   1.0000   1.0000   1.0000   1.0000   1.0000   1.0000   1.0000
     1.0000   1.0000   0.0000   0.0000   0.0000   0.0000   0.0000   0.0000
     0.0000   0.0000   0.0000

          k = 0.2501 0.0686-0.3937 ( 20057 PWs)   bands (ev):

  -113.3841 -69.5087 -67.7251 -67.7186 -67.7057 -64.8405 -64.7788 -38.5554
   -38.5473 -38.5333 -29.2220 -29.2122 -29.1379 -29.1193 -29.0444 -29.0336
    -8.2875  -7.8810  -7.7054  -7.6005  -7.3029  -7.2479  -6.9294  -6.8450
     3.2094   3.4750   3.6846   3.8920   3.9799   4.2621   4.4109   4.5569
     4.7301   5.0667   5.1761   5.2559   5.3816   5.5459   5.8188   5.9236
     6.0733   6.2992   6.6762   6.7706   6.8793   7.0593   7.3685   7.5123
     7.6956   8.0282   8.2202   8.3831   8.5399   8.6658   8.7767   9.0613
     9.6136   9.8227  12.7264  13.0693  13.3188  13.4597  13.5462  13.8327
    16.1765  16.7708  17.3601

     occupation numbers 
     1.0000   1.0000   1.0000   1.0000   1.0000   1.0000   1.0000   1.0000
     1.0000   1.0000   1.0000   1.0000   1.0000   1.0000   1.0000   1.0000
     1.0000   1.0000   1.0000   1.0000   1.0000   1.0000   1.0000   1.0000
     1.0000   1.0000   1.0000   1.0000   1.0000   1.0000   1.0000   1.0000
     1.0000   1.0000   1.0000   1.0000   1.0000   1.0000   1.0000   1.0000
     1.0000   1.0000   1.0000   1.0000   1.0000   1.0000   1.0000   1.0000
     1.0000   1.0000   1.0000   1.0000   1.0000   1.0000   1.0000   1.0000
     1.0000   1.0000   0.0000   0.0000   0.0000   0.0000   0.0000   0.0000
     0.0000   0.0000   0.0000

          k = 0.2500 0.0686-0.2348 ( 20051 PWs)   bands (ev):

  -113.3841 -69.5087 -67.7251 -67.7186 -67.7057 -64.8406 -64.7786 -38.5554
   -38.5473 -38.5333 -29.2272 -29.1998 -29.1475 -29.1058 -29.0556 -29.0324
    -8.5929  -7.7176  -7.5671  -7.4635  -7.3915  -7.2602  -6.9504  -6.8407
     3.2065   3.3637   3.6940   3.9411   4.0448   4.2220   4.5153   4.5319
     4.6901   5.0083   5.0950   5.2177   5.4106   5.6062   5.8241   5.9024
     6.1944   6.3329   6.6145   6.8201   7.0369   7.2621   7.3327   7.4627
     7.7983   7.9691   8.1451   8.3122   8.4330   8.6706   8.8098   8.9137
     9.5391   9.7329  12.7098  13.0448  13.1852  13.4417  13.6688  14.0718
    16.0665  16.9999  17.3485

     occupation numbers 
     1.0000   1.0000   1.0000   1.0000   1.0000   1.0000   1.0000   1.0000
     1.0000   1.0000   1.0000   1.0000   1.0000   1.0000   1.0000   1.0000
     1.0000   1.0000   1.0000   1.0000   1.0000   1.0000   1.0000   1.0000
     1.0000   1.0000   1.0000   1.0000   1.0000   1.0000   1.0000   1.0000
     1.0000   1.0000   1.0000   1.0000   1.0000   1.0000   1.0000   1.0000
     1.0000   1.0000   1.0000   1.0000   1.0000   1.0000   1.0000   1.0000
     1.0000   1.0000   1.0000   1.0000   1.0000   1.0000   1.0000   1.0000
     1.0000   1.0000   0.0000   0.0000   0.0000   0.0000   0.0000   0.0000
     0.0000   0.0000   0.0000

          k = 0.2500 0.0686-0.0759 ( 20063 PWs)   bands (ev):

  -113.3840 -69.5087 -67.7251 -67.7186 -67.7057 -64.8408 -64.7784 -38.5554
   -38.5473 -38.5333 -29.2290 -29.1899 -29.1549 -29.0912 -29.0697 -29.0330
    -8.7617  -7.7062  -7.5490  -7.4269  -7.3330  -7.1834  -6.9383  -6.8581
     3.2069   3.4075   3.5285   3.8423   4.0263   4.2550   4.4820   4.5906
     4.8602   4.9412   5.0897   5.1898   5.4461   5.6668   5.8053   5.9070
     6.1124   6.3650   6.6486   6.7620   7.1057   7.2964   7.3885   7.5121
     7.7319   7.9050   8.1864   8.3054   8.5446   8.6677   8.7108   9.0366
     9.3846   9.6990  12.8288  12.9756  13.1476  13.4056  13.9551  14.1971
    15.7231  16.8217  17.4325

     occupation numbers 
     1.0000   1.0000   1.0000   1.0000   1.0000   1.0000   1.0000   1.0000
     1.0000   1.0000   1.0000   1.0000   1.0000   1.0000   1.0000   1.0000
     1.0000   1.0000   1.0000   1.0000   1.0000   1.0000   1.0000   1.0000
     1.0000   1.0000   1.0000   1.0000   1.0000   1.0000   1.0000   1.0000
     1.0000   1.0000   1.0000   1.0000   1.0000   1.0000   1.0000   1.0000
     1.0000   1.0000   1.0000   1.0000   1.0000   1.0000   1.0000   1.0000
     1.0000   1.0000   1.0000   1.0000   1.0000   1.0000   1.0000   1.0000
     1.0000   1.0000   0.0000   0.0000   0.0000   0.0000   0.0000   0.0000
     0.0000   0.0000   0.0000

          k = 0.2500 0.2059 0.0831 ( 20078 PWs)   bands (ev):

  -113.3840 -69.5087 -67.7251 -67.7186 -67.7057 -64.8408 -64.7784 -38.5554
   -38.5473 -38.5333 -29.2287 -29.1889 -29.1548 -29.0914 -29.0708 -29.0333
    -8.6792  -7.8227  -7.6754  -7.3972  -7.3010  -7.0880  -6.9575  -6.8370
[...]
     0.0000   0.0000   0.0000

          k = 0.4167 0.2059 0.0854 ( 20047 PWs)   bands (ev):

  -113.3826 -67.7235 -67.7170 -67.7041 -64.9072 -64.8175 -64.7407 -33.6935
   -33.6914 -33.6753 -29.1850 -29.1531 -29.1221 -29.0573 -29.0196 -28.9896
    -8.5044  -7.7987  -7.6637  -7.3515  -7.2762  -7.0256  -6.9727  -6.8117
     3.2859   3.7419   3.9207   4.0377   4.1892   4.4712   4.5708   4.7675
     5.0843   5.1586   5.2515   5.6625   5.7951   5.9292   6.1076   6.4086
     6.5328   6.8011   7.0395   7.2219   7.4704   7.8759   7.9870   8.0773
     8.3212   8.4540   8.7407   8.7986   9.0086  12.7165  13.0563  13.1561
    13.5392  13.6587  14.1958  15.6200  15.8170  15.9259  16.1652  16.5072
    16.7371  17.1560  17.5375

     occupation numbers 
     1.0000   1.0000   1.0000   1.0000   1.0000   1.0000   1.0000   1.0000
     1.0000   1.0000   1.0000   1.0000   1.0000   1.0000   1.0000   1.0000
     1.0000   1.0000   1.0000   1.0000   1.0000   1.0000   1.0000   1.0000
     1.0000   1.0000   1.0000   1.0000   1.0000   1.0000   1.0000   1.0000
     1.0000   1.0000   1.0000   1.0000   1.0000   1.0000   1.0000   1.0000
     1.0000   1.0000   1.0000   1.0000   1.0000   1.0000   1.0000   1.0000
     1.0000   1.0000   1.0000   1.0000   1.0000   0.0000   0.0000   0.0000
     0.0000   0.0000   0.0000   0.0000   0.0000   0.0000   0.0000   0.0000
     0.0000   0.0000   0.0000

          k = 0.4166 0.2059 0.2444 ( 20027 PWs)   bands (ev):

  -113.3826 -67.7235 -67.7170 -67.7041 -64.9072 -64.8174 -64.7406 -33.6935
   -33.6914 -33.6754 -29.1847 -29.1621 -29.1149 -29.0695 -29.0082 -28.9879
    -8.3483  -7.8382  -7.6385  -7.4464  -7.3038  -7.0758  -6.9360  -6.8257
     3.3280   3.7317   3.9419   4.0946   4.1578   4.3964   4.5372   4.7350
     4.9289   5.1009   5.3035   5.4601   5.7015   6.0148   6.1375   6.5333
     6.6798   7.0389   7.1303   7.3273   7.4677   7.7054   7.9314   8.1134
     8.2961   8.5099   8.6749   8.8588   8.9553  12.6610  13.1272  13.2865
    13.4886  13.6149  14.0932  15.5419  15.7936  15.9371  16.0830  16.5593
    16.7617  17.1518  17.3157

     occupation numbers 
     1.0000   1.0000   1.0000   1.0000   1.0000   1.0000   1.0000   1.0000
     1.0000   1.0000   1.0000   1.0000   1.0000   1.0000   1.0000   1.0000
     1.0000   1.0000   1.0000   1.0000   1.0000   1.0000   1.0000   1.0000
     1.0000   1.0000   1.0000   1.0000   1.0000   1.0000   1.0000   1.0000
     1.0000   1.0000   1.0000   1.0000   1.0000   1.0000   1.0000   1.0000
     1.0000   1.0000   1.0000   1.0000   1.0000   1.0000   1.0000   1.0000
     1.0000   1.0000   1.0000   1.0000   1.0000   0.0000   0.0000   0.0000
     0.0000   0.0000   0.0000   0.0000   0.0000   0.0000   0.0000   0.0000
     0.0000   0.0000   0.0000

          k = 0.4166 0.2059 0.4033 ( 20066 PWs)   bands (ev):

  -113.3825 -67.7235 -67.7170 -67.7041 -64.9072 -64.8173 -64.7406 -33.6935
   -33.6915 -33.6754 -29.1821 -29.1722 -29.1065 -29.0814 -28.9979 -28.9879
    -8.0836  -7.8707  -7.7070  -7.5551  -7.3230  -7.1752  -6.8863  -6.8249
     3.4237   3.7758   3.8246   3.9219   4.0888   4.3935   4.5652   4.6719
     5.0494   5.2861   5.3659   5.5145   5.5699   6.0161   6.2097   6.5519
     6.6357   6.8517   6.9519   7.4315   7.5492   7.7490   8.0845   8.1997
     8.3007   8.5406   8.6096   8.7589   8.9721  12.7957  13.0243  13.2769
    13.4689  13.6207  13.8873  15.5763  15.7647  15.8678  16.0571  16.5437
    16.8864  17.0268  17.5098

     occupation numbers 
     1.0000   1.0000   1.0000   1.0000   1.0000   1.0000   1.0000   1.0000
     1.0000   1.0000   1.0000   1.0000   1.0000   1.0000   1.0000   1.0000
     1.0000   1.0000   1.0000   1.0000   1.0000   1.0000   1.0000   1.0000
     1.0000   1.0000   1.0000   1.0000   1.0000   1.0000   1.0000   1.0000
     1.0000   1.0000   1.0000   1.0000   1.0000   1.0000   1.0000   1.0000
     1.0000   1.0000   1.0000   1.0000   1.0000   1.0000   1.0000   1.0000
     1.0000   1.0000   1.0000   1.0000   1.0000   0.0000   0.0000   0.0000
     0.0000   0.0000   0.0000   0.0000   0.0000   0.0000   0.0000   0.0000
     0.0000   0.0000   0.0000

          k = 0.4167 0.2059-0.3913 ( 20052 PWs)   bands (ev):

  -113.3825 -67.7235 -67.7170 -67.7041 -64.9072 -64.8173 -64.7405 -33.6935
   -33.6915 -33.6754 -29.1821 -29.1723 -29.1064 -29.0815 -28.9978 -28.9880
    -8.0984  -7.8299  -7.6993  -7.5511  -7.3060  -7.2435  -6.9036  -6.7994
     3.4391   3.7650   3.7923   3.9255   4.1912   4.3308   4.5115   4.7392
     5.0754   5.2500   5.3798   5.5319   5.6320   6.1035   6.1974   6.4320
     6.5640   6.8338   7.0147   7.4497   7.5925   7.7387   7.9950   8.2081
     8.3403   8.4268   8.6221   8.7593   9.0106  12.7126  13.0874  13.2909
    13.3837  13.6224  13.8322  15.6709  15.7194  15.8536  16.1183  16.5862
    16.9053  17.0015  17.6767

     occupation numbers 
     1.0000   1.0000   1.0000   1.0000   1.0000   1.0000   1.0000   1.0000
     1.0000   1.0000   1.0000   1.0000   1.0000   1.0000   1.0000   1.0000
     1.0000   1.0000   1.0000   1.0000   1.0000   1.0000   1.0000   1.0000
     1.0000   1.0000   1.0000   1.0000   1.0000   1.0000   1.0000   1.0000
     1.0000   1.0000   1.0000   1.0000   1.0000   1.0000   1.0000   1.0000
     1.0000   1.0000   1.0000   1.0000   1.0000   1.0000   1.0000   1.0000
     1.0000   1.0000   1.0000   1.0000   1.0000   0.0000   0.0000   0.0000
     0.0000   0.0000   0.0000   0.0000   0.0000   0.0000   0.0000   0.0000
     0.0000   0.0000   0.0000

          k = 0.4167 0.2059-0.2324 ( 20060 PWs)   bands (ev):

  -113.3826 -67.7235 -67.7170 -67.7041 -64.9072 -64.8174 -64.7406 -33.6935
   -33.6915 -33.6754 -29.1847 -29.1621 -29.1148 -29.0696 -29.0081 -28.9880
    -8.3546  -7.8001  -7.5593  -7.4506  -7.3837  -7.1455  -6.9289  -6.8009
     3.3250   3.7447   3.9573   4.0301   4.1625   4.4241   4.5713   4.7659
     5.0434   5.1339   5.3560   5.4557   5.6266   6.0528   6.1217   6.4056
     6.7515   6.9802   7.1644   7.3330   7.4926   7.7075   7.8031   8.1567
     8.2532   8.4107   8.6823   8.8439   9.0086  12.6021  13.1373  13.3040
    13.3928  13.5107  14.0385  15.6607  15.7674  15.9396  16.1604  16.6678
    16.7831  17.1383  17.5766

     occupation numbers 
     1.0000   1.0000   1.0000   1.0000   1.0000   1.0000   1.0000   1.0000
     1.0000   1.0000   1.0000   1.0000   1.0000   1.0000   1.0000   1.0000
     1.0000   1.0000   1.0000   1.0000   1.0000   1.0000   1.0000   1.0000
     1.0000   1.0000   1.0000   1.0000   1.0000   1.0000   1.0000   1.0000
     1.0000   1.0000   1.0000   1.0000   1.0000   1.0000   1.0000   1.0000
     1.0000   1.0000   1.0000   1.0000   1.0000   1.0000   1.0000   1.0000
     1.0000   1.0000   1.0000   1.0000   1.0000   0.0000   0.0000   0.0000
     0.0000   0.0000   0.0000   0.0000   0.0000   0.0000   0.0000   0.0000
     0.0000   0.0000   0.0000

          k = 0.4167 0.2059-0.0735 ( 20055 PWs)   bands (ev):

  -113.3826 -67.7235 -67.7170 -67.7041 -64.9072 -64.8175 -64.7407 -33.6935
   -33.6914 -33.6753 -29.1849 -29.1532 -29.1221 -29.0574 -29.0195 -28.9897
    -8.5062  -7.7884  -7.6160  -7.3650  -7.3246  -7.0569  -6.9432  -6.8097
     3.2788   3.7154   3.9458   4.0656   4.1747   4.4514   4.6205   4.7816
     5.0439   5.2206   5.3454   5.6617   5.7633   5.8922   6.0870   6.3982
     6.5401   6.7800   7.0663   7.1976   7.4812   7.8247   7.9544   8.1113
     8.2881   8.4809   8.6537   8.8867   8.9839  12.7178  13.0425  13.1329
    13.4945  13.6165  14.1757  15.6754  15.7999  15.9395  16.1932  16.5760
    16.7502  17.1691  17.6742

     occupation numbers 
     1.0000   1.0000   1.0000   1.0000   1.0000   1.0000   1.0000   1.0000
     1.0000   1.0000   1.0000   1.0000   1.0000   1.0000   1.0000   1.0000
     1.0000   1.0000   1.0000   1.0000   1.0000   1.0000   1.0000   1.0000
     1.0000   1.0000   1.0000   1.0000   1.0000   1.0000   1.0000   1.0000
     1.0000   1.0000   1.0000   1.0000   1.0000   1.0000   1.0000   1.0000
     1.0000   1.0000   1.0000   1.0000   1.0000   1.0000   1.0000   1.0000
     1.0000   1.0000   1.0000   1.0000   1.0000   0.0000   0.0000   0.0000
     0.0000   0.0000   0.0000   0.0000   0.0000   0.0000   0.0000   0.0000
     0.0000   0.0000   0.0000

          k = 0.4167 0.3432 0.0854 ( 20075 PWs)   bands (ev):

  -113.3826 -67.7235 -67.7170 -67.7041 -64.9072 -64.8174 -64.7407 -33.6935
   -33.6914 -33.6753 -29.1847 -29.1524 -29.1217 -29.0577 -29.0205 -28.9899
    -8.4374  -7.8733  -7.6711  -7.3386  -7.3122  -7.0418  -6.9133  -6.8242
     3.1285   3.8005   3.9008   4.0413   4.3011   4.4548   4.7156   4.9494
     5.0959   5.1296   5.3080   5.7160   5.7756   5.9720   6.0924   6.2975
     6.3977   6.7960   7.0668   7.1923   7.4299   7.6826   7.9835   8.0770
     8.3377   8.5187   8.6434   8.7662   8.9288  12.6577  13.1134  13.2113
    13.5595  13.6776  14.1854  15.4765  15.8352  15.9476  16.0833  16.4761
    16.7199  17.3985  17.6024

     occupation numbers 
     1.0000   1.0000   1.0000   1.0000   1.0000   1.0000   1.0000   1.0000
     1.0000   1.0000   1.0000   1.0000   1.0000   1.0000   1.0000   1.0000
     1.0000   1.0000   1.0000   1.0000   1.0000   1.0000   1.0000   1.0000
     1.0000   1.0000   1.0000   1.0000   1.0000   1.0000   1.0000   1.0000
     1.0000   1.0000   1.0000   1.0000   1.0000   1.0000   1.0000   1.0000
     1.0000   1.0000   1.0000   1.0000   1.0000   1.0000   1.0000   1.0000
     1.0000   1.0000   1.0000   1.0000   1.0000   0.0000   0.0000   0.0000
     0.0000   0.0000   0.0000   0.0000   0.0000   0.0000   0.0000   0.0000
     0.0000   0.0000   0.0000

          k = 0.4166 0.3432 0.2444 ( 20070 PWs)   bands (ev):

  -113.3825 -67.7235 -67.7170 -67.7041 -64.9072 -64.8173 -64.7406 -33.6935
   -33.6914 -33.6754 -29.1850 -29.1622 -29.1145 -29.0699 -29.0083 -28.9876
    -8.3002  -7.9107  -7.6474  -7.4320  -7.2318  -7.1118  -6.9499  -6.8348
     3.1813   3.7225   3.9575   4.0125   4.2144   4.4977   4.6939   4.8302
     5.0117   5.1190   5.2217   5.5226   5.7538   6.0447   6.2544   6.4628
     6.5708   6.9327   7.2058   7.2499   7.4365   7.7346   7.8247   8.0794
     8.2474   8.4915   8.6198   8.8101   8.8689  12.6389  13.1491  13.3216
    13.5105  13.6025  14.0974  15.4234  15.8118  15.8874  16.0304  16.5404
    16.6994  17.2966  17.5560

     occupation numbers 
     1.0000   1.0000   1.0000   1.0000   1.0000   1.0000   1.0000   1.0000
     1.0000   1.0000   1.0000   1.0000   1.0000   1.0000   1.0000   1.0000
     1.0000   1.0000   1.0000   1.0000   1.0000   1.0000   1.0000   1.0000
     1.0000   1.0000   1.0000   1.0000   1.0000   1.0000   1.0000   1.0000
     1.0000   1.0000   1.0000   1.0000   1.0000   1.0000   1.0000   1.0000
     1.0000   1.0000   1.0000   1.0000   1.0000   1.0000   1.0000   1.0000
     1.0000   1.0000   1.0000   1.0000   1.0000   0.0000   0.0000   0.0000
     0.0000   0.0000   0.0000   0.0000   0.0000   0.0000   0.0000   0.0000
     0.0000   0.0000   0.0000

          k = 0.4166 0.3432 0.4033 ( 20045 PWs)   bands (ev):

  -113.3825 -67.7235 -67.7170 -67.7041 -64.9072 -64.8172 -64.7406 -33.6935
   -33.6915 -33.6754 -29.1829 -29.1729 -29.1066 -29.0813 -28.9974 -28.9871
    -8.0739  -7.9289  -7.6933  -7.5407  -7.2401  -7.1544  -6.9303  -6.8682
     3.3426   3.7188   3.8124   3.8814   4.1747   4.3139   4.6781   4.8501
     5.0742   5.2209   5.4056   5.4893   5.6371   6.0389   6.2863   6.5989
     6.6636   6.9551   7.0932   7.3956   7.4749   7.6104   7.9753   8.1019
     8.2335   8.4313   8.5761   8.7497   8.8669  12.7742  13.0470  13.2772
    13.4075  13.6541  13.9101  15.4723  15.7219  15.7789  16.0313  16.5222
    16.8333  17.1587  17.8568

     occupation numbers 
     1.0000   1.0000   1.0000   1.0000   1.0000   1.0000   1.0000   1.0000
     1.0000   1.0000   1.0000   1.0000   1.0000   1.0000   1.0000   1.0000
     1.0000   1.0000   1.0000   1.0000   1.0000   1.0000   1.0000   1.0000
     1.0000   1.0000   1.0000   1.0000   1.0000   1.0000   1.0000   1.0000
     1.0000   1.0000   1.0000   1.0000   1.0000   1.0000   1.0000   1.0000
     1.0000   1.0000   1.0000   1.0000   1.0000   1.0000   1.0000   1.0000
     1.0000   1.0000   1.0000   1.0000   1.0000   0.0000   0.0000   0.0000
     0.0000   0.0000   0.0000   0.0000   0.0000   0.0000   0.0000   0.0000
     0.0000   0.0000   0.0000

          k = 0.4167 0.3432-0.3913 ( 20049 PWs)   bands (ev):

  -113.3825 -67.7235 -67.7170 -67.7041 -64.9072 -64.8172 -64.7405 -33.6935
   -33.6915 -33.6754 -29.1829 -29.1729 -29.1065 -29.0814 -28.9973 -28.9872
    -8.0791  -7.8711  -7.7210  -7.5493  -7.2462  -7.1831  -6.9619  -6.8230
     3.4325   3.6795   3.8424   3.9295   4.0843   4.2859   4.5588   4.8545
     5.1236   5.2619   5.3922   5.5463   5.6536   6.1081   6.2990   6.4622
     6.6493   7.0653   7.1970   7.3292   7.4647   7.5998   7.9364   8.0635
     8.3176   8.3605   8.5390   8.6540   8.9625  12.6864  13.1490  13.2243
    13.3678  13.6638  13.7994  15.5827  15.6287  15.8030  16.0891  16.5504
    16.9021  17.1097  18.0381

     occupation numbers 
     1.0000   1.0000   1.0000   1.0000   1.0000   1.0000   1.0000   1.0000
     1.0000   1.0000   1.0000   1.0000   1.0000   1.0000   1.0000   1.0000
     1.0000   1.0000   1.0000   1.0000   1.0000   1.0000   1.0000   1.0000
     1.0000   1.0000   1.0000   1.0000   1.0000   1.0000   1.0000   1.0000
     1.0000   1.0000   1.0000   1.0000   1.0000   1.0000   1.0000   1.0000
     1.0000   1.0000   1.0000   1.0000   1.0000   1.0000   1.0000   1.0000
     1.0000   1.0000   1.0000   1.0000   1.0000   0.0000   0.0000   0.0000
     0.0000   0.0000   0.0000   0.0000   0.0000   0.0000   0.0000   0.0000
     0.0000   0.0000   0.0000

          k = 0.4167 0.3432-0.2324 ( 20074 PWs)   bands (ev):

  -113.3825 -67.7235 -67.7170 -67.7041 -64.9072 -64.8173 -64.7406 -33.6935
   -33.6915 -33.6754 -29.1850 -29.1622 -29.1145 -29.0700 -29.0082 -28.9877
    -8.2951  -7.8654  -7.6066  -7.4443  -7.3484  -7.1444  -6.9248  -6.7992
     3.2554   3.7745   3.9736   4.0604   4.2078   4.2702   4.5839   4.8882
     5.0327   5.1709   5.3493   5.4868   5.6396   6.0324   6.3853   6.5360
     6.7316   6.9050   7.1622   7.2853   7.3690   7.6550   7.7850   8.1291
     8.2322   8.3618   8.6246   8.7260   8.9534  12.5803  13.2078  13.3075
    13.4101  13.4800  13.9930  15.5515  15.7606  15.8992  16.1167  16.6307
    16.7541  17.2681  17.7329

     occupation numbers 
     1.0000   1.0000   1.0000   1.0000   1.0000   1.0000   1.0000   1.0000
     1.0000   1.0000   1.0000   1.0000   1.0000   1.0000   1.0000   1.0000
     1.0000   1.0000   1.0000   1.0000   1.0000   1.0000   1.0000   1.0000
     1.0000   1.0000   1.0000   1.0000   1.0000   1.0000   1.0000   1.0000
     1.0000   1.0000   1.0000   1.0000   1.0000   1.0000   1.0000   1.0000
     1.0000   1.0000   1.0000   1.0000   1.0000   1.0000   1.0000   1.0000
     1.0000   1.0000   1.0000   1.0000   1.0000   0.0000   0.0000   0.0000
     0.0000   0.0000   0.0000   0.0000   0.0000   0.0000   0.0000   0.0000
     0.0000   0.0000   0.0000

          k = 0.4167 0.3432-0.0735 ( 20069 PWs)   bands (ev):

  -113.3826 -67.7235 -67.7170 -67.7041 -64.9072 -64.8174 -64.7407 -33.6935
   -33.6914 -33.6753 -29.1847 -29.1525 -29.1217 -29.0578 -29.0204 -28.9899
    -8.4349  -7.8627  -7.6172  -7.4001  -7.3407  -7.0580  -6.8900  -6.8130
     3.1535   3.7789   3.9713   4.0107   4.3333   4.4873   4.6251   4.8445
     5.0964   5.1892   5.3417   5.6451   5.8065   5.9895   6.1035   6.3457
     6.5236   6.7326   7.0830   7.2167   7.3752   7.6913   7.8485   8.1727
     8.3316   8.4427   8.6452   8.8137   8.8925  12.6551  13.1276  13.1836
    13.4998  13.6257  14.1512  15.5378  15.8150  15.9519  16.1225  16.5304
    16.7170  17.4125  17.6721

     occupation numbers 
     1.0000   1.0000   1.0000   1.0000   1.0000   1.0000   1.0000   1.0000
     1.0000   1.0000   1.0000   1.0000   1.0000   1.0000   1.0000   1.0000
     1.0000   1.0000   1.0000   1.0000   1.0000   1.0000   1.0000   1.0000
     1.0000   1.0000   1.0000   1.0000   1.0000   1.0000   1.0000   1.0000
     1.0000   1.0000   1.0000   1.0000   1.0000   1.0000   1.0000   1.0000
     1.0000   1.0000   1.0000   1.0000   1.0000   1.0000   1.0000   1.0000
     1.0000   1.0000   1.0000   1.0000   1.0000   0.0000   0.0000   0.0000
     0.0000   0.0000   0.0000   0.0000   0.0000   0.0000   0.0000   0.0000
     0.0000   0.0000   0.0000

     the Fermi energy is    11.2876 ev

!    total energy              =   -1202.89150933 Ry
     estimated scf accuracy    <          2.5E-10 Ry
     smearing contrib. (-TS)   =       0.00000000 Ry
     internal energy E=F+TS    =   -1202.89150933 Ry

     The total energy is F=E-TS. E is the sum of the following terms:
     one-electron contribution =    -591.45960583 Ry
     hartree contribution      =     349.03056375 Ry
     xc contribution           =    -212.64050729 Ry
     ewald contribution        =    -747.86900259 Ry
     Hubbard energy            =       0.04704263 Ry

     total magnetization       =     5.00 Bohr mag/cell
     absolute magnetization    =     5.03 Bohr mag/cell

     convergence has been achieved in  12 iterations

     Writing all to output data dir ./tmp/MnZnWO4_FM/MnZnWO4_FM.save/ :
     XML data file, charge density
     init_run     :      4.13s CPU      4.23s WALL (       1 calls)
     electrons    :    134.70s CPU    136.25s WALL (       1 calls)

     Called by init_run:
     wfcinit      :      4.07s CPU      4.15s WALL (       1 calls)
     wfcinit:atom :      0.02s CPU      0.02s WALL (     108 calls)
     wfcinit:wfcr :      3.17s CPU      3.24s WALL (     108 calls)
     potinit      :      0.01s CPU      0.02s WALL (       1 calls)
     hinit0       :      0.01s CPU      0.02s WALL (       1 calls)

     Called by electrons:
     c_bands      :    121.56s CPU    122.83s WALL (      12 calls)
     sum_band     :     12.89s CPU     13.09s WALL (      12 calls)
     v_of_rho     :      0.12s CPU      0.12s WALL (      13 calls)
     v_h          :      0.00s CPU      0.00s WALL (      13 calls)
     v_xc         :      0.12s CPU      0.12s WALL (      13 calls)
     mix_rho      :      0.13s CPU      0.14s WALL (      12 calls)

     Called by c_bands:
     init_us_2    :      2.05s CPU      2.11s WALL (    2808 calls)
     cegterg      :    112.65s CPU    113.75s WALL (    1296 calls)

     Called by sum_band:
     sum_band:wei :      0.04s CPU      0.04s WALL (      12 calls)
     sum_band:loo :     12.37s CPU     12.54s WALL (      12 calls)
     sum_band:buf :      0.20s CPU      0.21s WALL (    1296 calls)
     sum_band:ini :      0.64s CPU      0.65s WALL (    1296 calls)

     Called by *egterg:
     cdiaghg      :     19.48s CPU     19.59s WALL (    5820 calls)
     cegterg:over :      5.93s CPU      5.98s WALL (    4524 calls)
     cegterg:upda :      3.20s CPU      3.22s WALL (    4524 calls)
     cegterg:last :      5.55s CPU      5.59s WALL (    2615 calls)
     h_psi        :     77.59s CPU     78.52s WALL (    5928 calls)
     g_psi        :      0.26s CPU      0.26s WALL (    4524 calls)

     Called by h_psi:
     h_psi:calbec :      9.35s CPU      9.43s WALL (    5928 calls)
     vloc_psi     :     57.36s CPU     58.12s WALL (    5928 calls)
     add_vuspsi   :      8.37s CPU      8.43s WALL (    5928 calls)
     vhpsi        :      2.10s CPU      2.11s WALL (    5928 calls)

     General routines
     calbec       :     11.69s CPU     11.81s WALL (   13260 calls)
     fft          :      0.05s CPU      0.05s WALL (     245 calls)
     ffts         :      0.07s CPU      0.07s WALL (     355 calls)
     fftw         :     64.62s CPU     65.50s WALL (  538146 calls)
 
     Parallel routines

     Hubbard U routines
     new_ns       :      0.47s CPU      0.50s WALL (      12 calls)
     vhpsi        :      2.10s CPU      2.11s WALL (    5928 calls)
 
     PWSCF        :   2m18.90s CPU   2m20.67s WALL

 
   This run was terminated on:   8:55:33   9Mar2026            

=------------------------------------------------------------------------------=
   JOB DONE.
=------------------------------------------------------------------------------=
